
     Program PWSCF v.7.4.1 starts on 25Oct2025 at 21: 0:13 

     This program is part of the open-source Quantum ESPRESSO suite
     for quantum simulation of materials; please cite
         "P. Giannozzi et al., J. Phys.:Condens. Matter 21 395502 (2009);
         "P. Giannozzi et al., J. Phys.:Condens. Matter 29 465901 (2017);
         "P. Giannozzi et al., J. Chem. Phys. 152 154105 (2020);
          URL http://www.quantum-espresso.org", 
     in publications or presentations arising from this work. More details at
     http://www.quantum-espresso.org/quote

     Parallel version (MPI & OpenMP), running on      16 processor cores
     Number of MPI processes:                 1
     Threads/MPI process:                    16

     MPI processes distributed on     1 nodes
     51113 MiB available memory on the printing compute node when the environment starts
 
     Reading input from mg_relax.in

     Current dimensions of program PWSCF are:
     Max number of different atomic species (ntypx) = 10
     Max number of k-points (npk) =  40000
     Max angular momentum in pseudopotentials (lmaxx) =  4
     file Mg.pbe-n-kjpaw_psl.0.3.0.UPF: wavefunction(s)  3S renormalized
 
     Subspace diagonalization in iterative solution of the eigenvalue problem:
     a serial algorithm will be used

 
     G-vector sticks info
     --------------------
     sticks:   dense  smooth     PW     G-vecs:    dense   smooth      PW
     Sum        1213     595    187                55197    19543    3273
 
     Using Slab Decomposition
 


     bravais-lattice index     =            4
     lattice parameter (alat)  =       6.0471  a.u.
     unit-cell volume          =     311.1935 (a.u.)^3
     number of atoms/cell      =            2
     number of atomic types    =            1
     number of electrons       =         4.00
     number of Kohn-Sham states=            6
     kinetic-energy cutoff     =      60.0000  Ry
     charge density cutoff     =     480.0000  Ry
     scf convergence threshold =      1.0E-08
     mixing beta               =       0.7000
     number of iterations used =            8  plain     mixing
     energy convergence thresh.=      1.0E-04
     force convergence thresh. =      1.0E-03
     press convergence thresh. =      5.0E-01
     Exchange-correlation= SLA  PW   PBX  PBC
                           (   1   4   3   4   0   0   0)
     nstep                     =           50


     GPU acceleration is ACTIVE.  1 visible GPUs per MPI rank


     celldm(1)=   6.047124  celldm(2)=   0.000000  celldm(3)=   1.625000
     celldm(4)=   0.000000  celldm(5)=   0.000000  celldm(6)=   0.000000

     crystal axes: (cart. coord. in units of alat)
               a(1) = (   1.000000   0.000000   0.000000 )  
               a(2) = (  -0.500000   0.866025   0.000000 )  
               a(3) = (   0.000000   0.000000   1.625000 )  

     reciprocal axes: (cart. coord. in units 2 pi/alat)
               b(1) = (  1.000000  0.577350 -0.000000 )  
               b(2) = (  0.000000  1.154701  0.000000 )  
               b(3) = (  0.000000 -0.000000  0.615385 )  


     PseudoPot. # 1 for Mg read from file:
     ../pseudo-potentials/SSSP_1.3.0_PBE_efficiency/Mg.pbe-n-kjpaw_psl.0.3.0.UPF
     MD5 check sum: 24ecedc7f3e3cbe212e682f4413594e4
     Pseudo is Projector augmented-wave + core cor, Zval =  2.0
     Generated using "atomic" code by A. Dal Corso  v.5.0.99 svn rev. 10869
     Shape of augmentation charge: PSQ
     Using radial grid of 1129 points,  4 beta functions with: 
                l(1) =   0
                l(2) =   0
                l(3) =   1
                l(4) =   1
     Q(r) pseudized with 0 coefficients 


     atomic species   valence    mass     pseudopotential
     Mg                2.00    24.30500     Mg( 1.00)

     24 Sym. Ops., with inversion, found (12 have fractional translation)



   Cartesian axes

     site n.     atom                  positions (alat units)
         1        Mg     tau(   1) = (   0.0000000   0.0000000   0.0000000  )
         2        Mg     tau(   2) = (  -0.0000005   0.5773506   0.8125000  )

     number of k points=    95  Methfessel-Paxton smearing, width (Ry)=  0.0200
                       cart. coord. in units 2pi/alat
        k(    1) = (   0.0000000   0.0000000   0.0000000), wk =   0.0017361
        k(    2) = (   0.0000000   0.0000000   0.0769231), wk =   0.0034722
        k(    3) = (   0.0000000   0.0000000   0.1538462), wk =   0.0034722
        k(    4) = (   0.0000000   0.0000000   0.2307692), wk =   0.0034722
        k(    5) = (   0.0000000   0.0000000  -0.3076923), wk =   0.0017361
        k(    6) = (   0.0000000   0.0962250   0.0000000), wk =   0.0104167
        k(    7) = (   0.0000000   0.0962250   0.0769231), wk =   0.0208333
        k(    8) = (   0.0000000   0.0962250   0.1538462), wk =   0.0208333
        k(    9) = (   0.0000000   0.0962250   0.2307692), wk =   0.0208333
        k(   10) = (   0.0000000   0.0962250  -0.3076923), wk =   0.0104167
        k(   11) = (   0.0000000   0.1924501   0.0000000), wk =   0.0104167
        k(   12) = (   0.0000000   0.1924501   0.0769231), wk =   0.0208333
        k(   13) = (   0.0000000   0.1924501   0.1538462), wk =   0.0208333
        k(   14) = (   0.0000000   0.1924501   0.2307692), wk =   0.0208333
        k(   15) = (   0.0000000   0.1924501  -0.3076923), wk =   0.0104167
        k(   16) = (   0.0000000   0.2886751   0.0000000), wk =   0.0104167
        k(   17) = (   0.0000000   0.2886751   0.0769231), wk =   0.0208333
        k(   18) = (   0.0000000   0.2886751   0.1538462), wk =   0.0208333
        k(   19) = (   0.0000000   0.2886751   0.2307692), wk =   0.0208333
        k(   20) = (   0.0000000   0.2886751  -0.3076923), wk =   0.0104167
        k(   21) = (   0.0000000   0.3849002   0.0000000), wk =   0.0104167
        k(   22) = (   0.0000000   0.3849002   0.0769231), wk =   0.0208333
        k(   23) = (   0.0000000   0.3849002   0.1538462), wk =   0.0208333
        k(   24) = (   0.0000000   0.3849002   0.2307692), wk =   0.0208333
        k(   25) = (   0.0000000   0.3849002  -0.3076923), wk =   0.0104167
        k(   26) = (   0.0000000   0.4811252   0.0000000), wk =   0.0104167
        k(   27) = (   0.0000000   0.4811252   0.0769231), wk =   0.0208333
        k(   28) = (   0.0000000   0.4811252   0.1538462), wk =   0.0208333
        k(   29) = (   0.0000000   0.4811252   0.2307692), wk =   0.0208333
        k(   30) = (   0.0000000   0.4811252  -0.3076923), wk =   0.0104167
        k(   31) = (   0.0000000  -0.5773503   0.0000000), wk =   0.0052083
        k(   32) = (   0.0000000  -0.5773503   0.0769231), wk =   0.0104167
        k(   33) = (   0.0000000  -0.5773503   0.1538462), wk =   0.0104167
        k(   34) = (   0.0000000  -0.5773503   0.2307692), wk =   0.0104167
        k(   35) = (   0.0000000  -0.5773503  -0.3076923), wk =   0.0052083
        k(   36) = (   0.0833333   0.1443376   0.0000000), wk =   0.0104167
        k(   37) = (   0.0833333   0.1443376   0.0769231), wk =   0.0208333
        k(   38) = (   0.0833333   0.1443376   0.1538462), wk =   0.0208333
        k(   39) = (   0.0833333   0.1443376   0.2307692), wk =   0.0208333
        k(   40) = (   0.0833333   0.1443376  -0.3076923), wk =   0.0104167
        k(   41) = (   0.0833333   0.2405626   0.0000000), wk =   0.0208333
        k(   42) = (   0.0833333   0.2405626   0.0769231), wk =   0.0416667
        k(   43) = (   0.0833333   0.2405626   0.1538462), wk =   0.0416667
        k(   44) = (   0.0833333   0.2405626   0.2307692), wk =   0.0416667
        k(   45) = (   0.0833333   0.2405626  -0.3076923), wk =   0.0208333
        k(   46) = (   0.0833333   0.3367877   0.0000000), wk =   0.0208333
        k(   47) = (   0.0833333   0.3367877   0.0769231), wk =   0.0416667
        k(   48) = (   0.0833333   0.3367877   0.1538462), wk =   0.0416667
        k(   49) = (   0.0833333   0.3367877   0.2307692), wk =   0.0416667
        k(   50) = (   0.0833333   0.3367877  -0.3076923), wk =   0.0208333
        k(   51) = (   0.0833333   0.4330127   0.0000000), wk =   0.0208333
        k(   52) = (   0.0833333   0.4330127   0.0769231), wk =   0.0416667
        k(   53) = (   0.0833333   0.4330127   0.1538462), wk =   0.0416667
        k(   54) = (   0.0833333   0.4330127   0.2307692), wk =   0.0416667
        k(   55) = (   0.0833333   0.4330127  -0.3076923), wk =   0.0208333
        k(   56) = (   0.0833333   0.5292377   0.0000000), wk =   0.0208333
        k(   57) = (   0.0833333   0.5292377   0.0769231), wk =   0.0416667
        k(   58) = (   0.0833333   0.5292377   0.1538462), wk =   0.0416667
        k(   59) = (   0.0833333   0.5292377   0.2307692), wk =   0.0416667
        k(   60) = (   0.0833333   0.5292377  -0.3076923), wk =   0.0208333
        k(   61) = (   0.1666667   0.2886751   0.0000000), wk =   0.0104167
        k(   62) = (   0.1666667   0.2886751   0.0769231), wk =   0.0208333
        k(   63) = (   0.1666667   0.2886751   0.1538462), wk =   0.0208333
        k(   64) = (   0.1666667   0.2886751   0.2307692), wk =   0.0208333
        k(   65) = (   0.1666667   0.2886751  -0.3076923), wk =   0.0104167
        k(   66) = (   0.1666667   0.3849002   0.0000000), wk =   0.0208333
        k(   67) = (   0.1666667   0.3849002   0.0769231), wk =   0.0416667
        k(   68) = (   0.1666667   0.3849002   0.1538462), wk =   0.0416667
        k(   69) = (   0.1666667   0.3849002   0.2307692), wk =   0.0416667
        k(   70) = (   0.1666667   0.3849002  -0.3076923), wk =   0.0208333
        k(   71) = (   0.1666667   0.4811252   0.0000000), wk =   0.0208333
        k(   72) = (   0.1666667   0.4811252   0.0769231), wk =   0.0416667
        k(   73) = (   0.1666667   0.4811252   0.1538462), wk =   0.0416667
        k(   74) = (   0.1666667   0.4811252   0.2307692), wk =   0.0416667
        k(   75) = (   0.1666667   0.4811252  -0.3076923), wk =   0.0208333
        k(   76) = (   0.1666667   0.5773503   0.0000000), wk =   0.0104167
        k(   77) = (   0.1666667   0.5773503   0.0769231), wk =   0.0208333
        k(   78) = (   0.1666667   0.5773503   0.1538462), wk =   0.0208333
        k(   79) = (   0.1666667   0.5773503   0.2307692), wk =   0.0208333
        k(   80) = (   0.1666667   0.5773503  -0.3076923), wk =   0.0104167
        k(   81) = (   0.2500000   0.4330127   0.0000000), wk =   0.0104167
        k(   82) = (   0.2500000   0.4330127   0.0769231), wk =   0.0208333
        k(   83) = (   0.2500000   0.4330127   0.1538462), wk =   0.0208333
        k(   84) = (   0.2500000   0.4330127   0.2307692), wk =   0.0208333
        k(   85) = (   0.2500000   0.4330127  -0.3076923), wk =   0.0104167
        k(   86) = (   0.2500000   0.5292377   0.0000000), wk =   0.0208333
        k(   87) = (   0.2500000   0.5292377   0.0769231), wk =   0.0416667
        k(   88) = (   0.2500000   0.5292377   0.1538462), wk =   0.0416667
        k(   89) = (   0.2500000   0.5292377   0.2307692), wk =   0.0416667
        k(   90) = (   0.2500000   0.5292377  -0.3076923), wk =   0.0208333
        k(   91) = (   0.3333333   0.5773503   0.0000000), wk =   0.0034722
        k(   92) = (   0.3333333   0.5773503   0.0769231), wk =   0.0069444
        k(   93) = (   0.3333333   0.5773503   0.1538462), wk =   0.0069444
        k(   94) = (   0.3333333   0.5773503   0.2307692), wk =   0.0069444
        k(   95) = (   0.3333333   0.5773503  -0.3076923), wk =   0.0034722

     Dense  grid:    55197 G-vectors     FFT dimensions: (  45,  45,  72)

     Smooth grid:    19543 G-vectors     FFT dimensions: (  30,  30,  50)

     Estimated max dynamical RAM per process >      97.87 MB

     Initial potential from superposition of free atoms

     starting charge       3.9982, renormalised to       4.0000
     Starting wfcs are    8 randomized atomic wfcs
     Checking if some PAW data can be deallocated... 

     total cpu time spent up to now is        5.3 secs

     Self-consistent Calculation

     iteration #  1     ecut=    60.00 Ry     beta= 0.70
     Davidson diagonalization with overlap
     ethr =  1.00E-02,  avg # of iterations =  4.2

     Threshold (ethr) on eigenvalues was too large:
     Diagonalizing with lowered threshold

     Davidson diagonalization with overlap
     ethr =  1.76E-04,  avg # of iterations =  3.2

     total cpu time spent up to now is        7.3 secs

     total energy              =     -67.23352701 Ry
     estimated scf accuracy    <       0.00706609 Ry

     iteration #  2     ecut=    60.00 Ry     beta= 0.70
     Davidson diagonalization with overlap
     ethr =  1.77E-04,  avg # of iterations =  1.0

     total cpu time spent up to now is        7.7 secs

     total energy              =     -67.23360749 Ry
     estimated scf accuracy    <       0.00064806 Ry

     iteration #  3     ecut=    60.00 Ry     beta= 0.70
     Davidson diagonalization with overlap
     ethr =  1.62E-05,  avg # of iterations =  3.2

     total cpu time spent up to now is        8.8 secs

     total energy              =     -67.23379779 Ry
     estimated scf accuracy    <       0.00000041 Ry

     iteration #  4     ecut=    60.00 Ry     beta= 0.70
     Davidson diagonalization with overlap
     c_bands:  1 eigenvalues not converged
     c_bands:  1 eigenvalues not converged
     ethr =  1.03E-08,  avg # of iterations =  9.0

     total cpu time spent up to now is       10.9 secs

     total energy              =     -67.23389782 Ry
     estimated scf accuracy    <       0.00000057 Ry

     iteration #  5     ecut=    60.00 Ry     beta= 0.70
     Davidson diagonalization with overlap
     ethr =  1.03E-08,  avg # of iterations =  1.1

     total cpu time spent up to now is       11.3 secs

     total energy              =     -67.23389279 Ry
     estimated scf accuracy    <       0.00000101 Ry

     iteration #  6     ecut=    60.00 Ry     beta= 0.70
     Davidson diagonalization with overlap
     ethr =  1.03E-08,  avg # of iterations =  2.7

     total cpu time spent up to now is       12.1 secs

     End of self-consistent calculation

          k = 0.0000 0.0000 0.0000 (  2479 PWs)   bands (ev):

    -3.3446   1.8978   2.3278  14.5008  14.5877  14.5878

          k = 0.0000 0.0000 0.0769 (  2460 PWs)   bands (ev):

    -3.2571   0.8426   3.5337  14.4508  14.6474  14.6474

          k = 0.0000 0.0000 0.1538 (  2436 PWs)   bands (ev):

    -2.9950  -0.2466   5.0745  12.5391  14.8208  14.8208

          k = 0.0000 0.0000 0.2308 (  2454 PWs)   bands (ev):

    -2.5600  -1.1817   6.7613  10.5220  15.0752  15.0752

          k = 0.0000 0.0000-0.3077 (  2472 PWs)   bands (ev):

    -1.9544  -1.9544   8.5823   8.5823  15.2481  15.2481

          k = 0.0000 0.0962 0.0000 (  2451 PWs)   bands (ev):

    -3.2077   2.0226   2.4605  12.2192  13.2876  14.0940

          k = 0.0000 0.0962 0.0769 (  2447 PWs)   bands (ev):

    -3.1203   0.9727   3.6604  12.2807  13.3590  14.0354

          k = 0.0000 0.0962 0.1538 (  2448 PWs)   bands (ev):

    -2.8587  -0.1144   5.1973  12.2922  12.8974  13.5728

          k = 0.0000 0.0962 0.2308 (  2462 PWs)   bands (ev):

    -2.4243  -1.0481   6.8788  10.6079  12.9318  13.9272

          k = 0.0000 0.0962-0.3077 (  2452 PWs)   bands (ev):

    -1.8196  -1.8196   8.6909   8.6909  13.3805  13.3806

          k = 0.0000 0.1925 0.0000 (  2449 PWs)   bands (ev):

    -2.7984   2.3970   2.8536   9.7025  12.2581  12.8834

          k = 0.0000 0.1925 0.0769 (  2450 PWs)   bands (ev):

    -2.7114   1.3616   4.0366   9.7779  12.3309  12.7594

          k = 0.0000 0.1925 0.1538 (  2449 PWs)   bands (ev):

    -2.4509   0.2806   5.5590   9.9989  12.2108  12.5492

          k = 0.0000 0.1925 0.2308 (  2460 PWs)   bands (ev):

    -2.0184  -0.6485   7.2169  10.2725  10.9966  11.6647

          k = 0.0000 0.1925-0.3077 (  2460 PWs)   bands (ev):

    -1.4164  -1.4164   8.9747   8.9747  10.9962  10.9962

          k = 0.0000 0.2887 0.0000 (  2449 PWs)   bands (ev):

    -2.1202   3.0215   3.4838   7.3752  11.4586  11.5776

          k = 0.0000 0.2887 0.0769 (  2450 PWs)   bands (ev):

    -2.0338   2.0040   4.6373   7.4641  10.9308  11.5316

          k = 0.0000 0.2887 0.1538 (  2452 PWs)   bands (ev):

    -1.7753   0.9342   6.0951   7.7460  10.0381  11.7508

          k = 0.0000 0.2887 0.2308 (  2446 PWs)   bands (ev):

    -1.3461   0.0131   7.4922   8.3416   9.2436  11.5258

          k = 0.0000 0.2887-0.3077 (  2454 PWs)   bands (ev):

    -0.7487  -0.7487   8.3702   8.3702   9.8542   9.8542

          k = 0.0000 0.3849 0.0000 (  2449 PWs)   bands (ev):

    -1.1794   3.8967   4.1544   5.4641  10.1013  10.8889

          k = 0.0000 0.3849 0.0769 (  2442 PWs)   bands (ev):

    -1.0939   2.8795   4.9447   5.9122   8.9624  10.9618

          k = 0.0000 0.3849 0.1538 (  2447 PWs)   bands (ev):

    -0.8381   1.8349   5.3681   7.1596   8.0289  11.1809

          k = 0.0000 0.3849 0.2308 (  2446 PWs)   bands (ev):

    -0.4136   0.9287   5.8056   7.0747   8.8296  11.5467

          k = 0.0000 0.3849-0.3077 (  2444 PWs)   bands (ev):

     0.1768   0.1768   6.3740   6.3740  10.4786  10.4786

          k = 0.0000 0.4811 0.0000 (  2445 PWs)   bands (ev):

     0.0153   3.0782   5.0206   5.7486   8.0608   8.5450

          k = 0.0000 0.4811 0.0769 (  2440 PWs)   bands (ev):

     0.0995   3.1147   4.1877   6.6899   7.2147   9.5521

          k = 0.0000 0.4811 0.1538 (  2433 PWs)   bands (ev):

     0.3511   2.8556   3.6624   6.0876   8.2486  10.8392

          k = 0.0000 0.4811 0.2308 (  2440 PWs)   bands (ev):

     0.7679   2.0683   3.9611   5.2249   9.7760  11.2043

          k = 0.0000 0.4811-0.3077 (  2448 PWs)   bands (ev):

     1.3449   1.3449   4.5087   4.5087  11.2293  11.7162

          k = 0.0000-0.5774 0.0000 (  2432 PWs)   bands (ev):

     1.4463   1.4529   6.2319   6.5964   6.8379   7.2509

          k = 0.0000-0.5774 0.0769 (  2432 PWs)   bands (ev):

     1.5261   1.5353   5.4748   5.5066   8.0763   8.1134

          k = 0.0000-0.5774 0.1538 (  2432 PWs)   bands (ev):

     1.7629   1.7793   4.4655   4.4930   9.3903   9.5504

          k = 0.0000-0.5774 0.2308 (  2440 PWs)   bands (ev):

     2.1407   2.1651   3.6054   3.6434  10.6505  11.0902

          k = 0.0000-0.5774-0.3077 (  2432 PWs)   bands (ev):

     2.4835   2.4835   3.1351   3.1351  11.6018  11.6018

          k = 0.0833 0.1443 0.0000 (  2457 PWs)   bands (ev):

    -2.9346   2.2721   2.7236  10.8935  11.1760  15.1878

          k = 0.0833 0.1443 0.0769 (  2451 PWs)   bands (ev):

    -2.8475   1.2322   3.9121  10.9608  11.2463  14.5289

          k = 0.0833 0.1443 0.1538 (  2454 PWs)   bands (ev):

    -2.5866   0.1492   5.4401  11.1390  11.4504  12.8597

          k = 0.0833 0.1443 0.2308 (  2459 PWs)   bands (ev):

    -2.1535  -0.7815   7.1083  10.7043  11.6774  11.7465

          k = 0.0833 0.1443-0.3077 (  2466 PWs)   bands (ev):

    -1.5506  -1.5506   8.8950   8.8950  11.8849  11.8849

          k = 0.0833 0.2406 0.0000 (  2458 PWs)   bands (ev):

    -2.3908   2.7716   3.2376   8.5860  10.0594  13.2738

          k = 0.0833 0.2406 0.0769 (  2458 PWs)   bands (ev):

    -2.3042   1.7481   4.4046   8.6645  10.1210  12.4154

          k = 0.0833 0.2406 0.1538 (  2452 PWs)   bands (ev):

    -2.0449   0.6736   5.9051   8.8988  10.2694  11.4992

          k = 0.0833 0.2406 0.2308 (  2454 PWs)   bands (ev):

    -1.6144  -0.2508   7.5161   9.2777  10.1976  10.8026

          k = 0.0833 0.2406-0.3077 (  2456 PWs)   bands (ev):

    -1.0152  -1.0152   9.0982   9.0982   9.9577   9.9577

          k = 0.0833 0.3368 0.0000 (  2445 PWs)   bands (ev):

    -1.5813   3.5216   3.9477   6.4105   9.2551  11.0607

          k = 0.0833 0.3368 0.0769 (  2445 PWs)   bands (ev):

    -1.4955   2.5110   5.0557   6.5335   9.2466  10.3723

          k = 0.0833 0.3368 0.1538 (  2454 PWs)   bands (ev):

    -1.2385   1.4519   6.2132   7.0854   8.9079   9.9941

          k = 0.0833 0.3368 0.2308 (  2452 PWs)   bands (ev):

    -0.8120   0.5381   6.8672   8.0696   8.5168  10.2331

          k = 0.0833 0.3368-0.3077 (  2452 PWs)   bands (ev):

    -0.2184  -0.2184   7.4587   7.4587   9.8673   9.8673

          k = 0.0833 0.4330 0.0000 (  2434 PWs)   bands (ev):

    -0.5135   3.9564   4.5217   5.3790   8.5599   9.0611

          k = 0.0833 0.4330 0.0769 (  2438 PWs)   bands (ev):

    -0.4287   3.4300   4.3439   6.2893   7.9945   9.1159

          k = 0.0833 0.4330 0.1538 (  2445 PWs)   bands (ev):

    -0.1751   2.4583   4.5483   7.0240   7.7213   9.4007

          k = 0.0833 0.4330 0.2308 (  2443 PWs)   bands (ev):

     0.2456   1.5722   4.9450   6.2099   9.0101   9.9729

          k = 0.0833 0.4330-0.3077 (  2440 PWs)   bands (ev):

     0.8301   0.8301   5.5030   5.5030   9.8785   9.8785

          k = 0.0833 0.5292 0.0000 (  2436 PWs)   bands (ev):

     0.8019   2.3425   5.7629   6.3822   7.3160   7.6192

          k = 0.0833 0.5292 0.0769 (  2435 PWs)   bands (ev):

     0.8848   2.4175   4.8749   6.3282   7.4015   8.4858

          k = 0.0833 0.5292 0.1538 (  2433 PWs)   bands (ev):

     1.1324   2.6224   3.8928   5.3395   8.4598   9.4008

          k = 0.0833 0.5292 0.2308 (  2433 PWs)   bands (ev):

     1.5404   2.6672   3.3676   4.4744   9.1371  10.2476

          k = 0.0833 0.5292-0.3077 (  2432 PWs)   bands (ev):

     2.0934   2.0934   3.7740   3.7740   9.7432   9.7432

          k = 0.1667 0.2887 0.0000 (  2449 PWs)   bands (ev):

    -1.7158   3.3965   3.8478   7.5329   7.9443  12.1344

          k = 0.1667 0.2887 0.0769 (  2446 PWs)   bands (ev):

    -1.6298   2.3859   4.9857   7.6078   8.0320  11.5122

          k = 0.1667 0.2887 0.1538 (  2449 PWs)   bands (ev):

    -1.3724   1.3232   6.4048   7.8286   8.2969  10.5782

          k = 0.1667 0.2887 0.2308 (  2453 PWs)   bands (ev):

    -0.9452   0.4073   7.7659   8.1752   8.6914   9.7052

          k = 0.1667 0.2887-0.3077 (  2450 PWs)   bands (ev):

    -0.3506  -0.3506   8.5113   8.5113   8.9380   8.9380

          k = 0.1667 0.3849 0.0000 (  2435 PWs)   bands (ev):

    -0.7792   4.2718   4.4921   5.7636   7.1854  10.2800

          k = 0.1667 0.3849 0.0769 (  2435 PWs)   bands (ev):

    -0.6941   3.2520   5.3108   6.1221   7.2972   9.5609

          k = 0.1667 0.3849 0.1538 (  2444 PWs)   bands (ev):

    -0.4396   2.2170   5.7363   6.9814   7.6897   8.8222

          k = 0.1667 0.3849 0.2308 (  2443 PWs)   bands (ev):

    -0.0172   1.3174   6.1590   7.2087   7.8664   8.8983

          k = 0.1667 0.3849-0.3077 (  2450 PWs)   bands (ev):

     0.5700   0.5700   6.6884   6.6884   8.3381   8.3381

          k = 0.1667 0.4811 0.0000 (  2431 PWs)   bands (ev):

     0.4099   3.4556   5.3952   5.7929   6.9408   8.4290

          k = 0.1667 0.4811 0.0769 (  2430 PWs)   bands (ev):

     0.4936   3.4886   4.5445   6.4107   7.1233   8.0492

          k = 0.1667 0.4811 0.1538 (  2436 PWs)   bands (ev):

     0.7437   3.2226   4.0433   6.2875   7.0757   8.8049

          k = 0.1667 0.4811 0.2308 (  2434 PWs)   bands (ev):

     1.1579   2.4468   4.3356   5.5532   7.4318   8.6406

          k = 0.1667 0.4811-0.3077 (  2438 PWs)   bands (ev):

     1.7305   1.7305   4.8696   4.8696   7.9763   7.9763

          k = 0.1667 0.5774 0.0000 (  2436 PWs)   bands (ev):

     1.8292   1.8448   6.1080   6.5986   6.9777   7.1811

          k = 0.1667 0.5774 0.0769 (  2435 PWs)   bands (ev):

     1.9086   1.9261   5.6424   5.8831   6.6667   8.3819

          k = 0.1667 0.5774 0.1538 (  2432 PWs)   bands (ev):

     2.1442   2.1662   4.7981   4.8470   6.9037   9.1614

          k = 0.1667 0.5774 0.2308 (  2430 PWs)   bands (ev):

     2.5188   2.5439   3.9914   3.9999   7.3025   8.5362

          k = 0.1667 0.5774-0.3077 (  2428 PWs)   bands (ev):

     2.8516   2.8516   3.5223   3.5223   7.8540   7.8540

          k = 0.2500 0.4330 0.0000 (  2429 PWs)   bands (ev):

     0.2788   4.5780   4.8807   5.2713   6.4674   9.5448

          k = 0.2500 0.4330 0.0769 (  2429 PWs)   bands (ev):

     0.3626   4.0974   4.9577   5.1956   7.1762   8.9569

          k = 0.2500 0.4330 0.1538 (  2439 PWs)   bands (ev):

     0.6135   3.1925   5.1850   5.3767   7.6511   8.0481

          k = 0.2500 0.4330 0.2308 (  2441 PWs)   bands (ev):

     1.0291   2.3334   5.5427   5.7096   7.0346   7.2402

          k = 0.2500 0.4330-0.3077 (  2440 PWs)   bands (ev):

     1.6053   1.6053   5.8878   5.8878   6.7319   6.7319

          k = 0.2500 0.5292 0.0000 (  2441 PWs)   bands (ev):

     1.5811   3.1046   4.5703   6.5073   7.3038   8.0430

          k = 0.2500 0.5292 0.0769 (  2434 PWs)   bands (ev):

     1.6628   3.1768   4.5989   5.7761   7.1328   8.2327

          k = 0.2500 0.5292 0.1538 (  2431 PWs)   bands (ev):

     1.9063   3.3702   4.4422   5.1593   6.2837   7.6712

          k = 0.2500 0.5292 0.2308 (  2429 PWs)   bands (ev):

     2.3062   3.3911   4.0999   4.9901   5.8448   6.8590

          k = 0.2500 0.5292-0.3077 (  2428 PWs)   bands (ev):

     2.8433   2.8433   4.4760   4.4760   6.1965   6.1965

          k = 0.3333 0.5774 0.0000 (  2442 PWs)   bands (ev):

     2.9680   2.9912   2.9912   7.7009   7.7010   7.8840

          k = 0.3333 0.5774 0.0769 (  2436 PWs)   bands (ev):

     3.0485   3.0655   3.0655   6.9081   7.1153   7.1153

          k = 0.3333 0.5774 0.1538 (  2442 PWs)   bands (ev):

     3.2795   3.2795   3.2901   5.8682   6.2192   6.2194

          k = 0.3333 0.5774 0.2308 (  2421 PWs)   bands (ev):

     3.5865   3.5865   3.6929   4.9824   5.4659   5.4659

          k = 0.3333 0.5774-0.3077 (  2412 PWs)   bands (ev):

     3.7822   3.7822   4.2570   4.2570   5.1184   5.1185

     the Fermi energy is     3.5282 ev

!    total energy              =     -67.23389305 Ry
     total all-electron energy =      -801.342310 Ry
     estimated scf accuracy    <          1.5E-09 Ry
     smearing contrib. (-TS)   =      -0.00003384 Ry
     internal energy E=F+TS    =     -67.23385921 Ry

     The total energy is F=E-TS. E is the sum of the following terms:
     one-electron contribution =       2.83296235 Ry
     hartree contribution      =       0.00745654 Ry
     xc contribution           =      -3.18459009 Ry
     ewald contribution        =      -4.29579073 Ry
     one-center paw contrib.   =     -62.59389728 Ry

     convergence has been achieved in   6 iterations

     Forces acting on atoms (cartesian axes, Ry/au):

     atom    1 type  1   force =     0.00000000    0.00000000    0.00000000
     atom    2 type  1   force =     0.00000000    0.00000000    0.00000000

     Total force =     0.000000     Total SCF correction =     0.000000


     Computing stress (Cartesian axis) and pressure

          total   stress  (Ry/bohr**3)                   (kbar)     P=       -3.26
  -0.00000192   0.00000000   0.00000000           -0.28        0.00        0.00
   0.00000000  -0.00000192  -0.00000000            0.00       -0.28       -0.00
   0.00000000   0.00000000  -0.00006261            0.00        0.00       -9.21


     BFGS Geometry Optimization
     Energy error            =      3.1E-05 Ry
     Gradient error          =      0.0E+00 Ry/Bohr
     Cell gradient error     =      9.2E+00 kbar

     number of scf cycles    =   1
     number of bfgs steps    =   0

     enthalpy           new  =     -67.2338930474 Ry

     new trust radius        =       0.0055225964 bohr
     new conv_thr            =       0.0000000100 Ry

     new unit-cell volume =    310.67662 a.u.^3 (    46.03752 Ang^3 )
     density =      1.75333 g/cm^3

CELL_PARAMETERS (alat=  6.04712360)
   0.999952070   0.000000000  -0.000000000
  -0.499976035   0.865983895   0.000000000
   0.000000000  -0.000000000   1.622456385

ATOMIC_POSITIONS (crystal)
Mg               0.0000000000        0.0000000000        0.0000000000
Mg               0.3333330000        0.6666670000        0.5000000000



     Writing config-only to output data dir ./tmp/mg.save/ :
     XML data file
     NEW-OLD atomic charge density approx. for the potential
     New effective cutoffs (rho, wfc):  480.40   60.18

     total cpu time spent up to now is       12.7 secs

     Self-consistent Calculation

     iteration #  1     ecut=    60.00 Ry     beta= 0.70
     Davidson diagonalization with overlap
     ethr =  1.00E-06,  avg # of iterations =  2.0

     Threshold (ethr) on eigenvalues was too large:
     Diagonalizing with lowered threshold

     Davidson diagonalization with overlap
     ethr =  7.80E-10,  avg # of iterations =  4.3

     total cpu time spent up to now is       14.5 secs

     total energy              =     -67.23392197 Ry
     estimated scf accuracy    <       0.00000003 Ry

     iteration #  2     ecut=    60.00 Ry     beta= 0.70
     Davidson diagonalization with overlap
     ethr =  8.69E-10,  avg # of iterations =  1.0

     total cpu time spent up to now is       14.9 secs

     End of self-consistent calculation

          k = 0.0000 0.0000 0.0000 (  2479 PWs)   bands (ev):

    -3.3416   1.9130   2.3523  14.5046  14.5913  14.5913

          k = 0.0000-0.0000 0.0770 (  2460 PWs)   bands (ev):

    -3.2538   0.8580   3.5583  14.4950  14.6511  14.6512

          k = 0.0000-0.0000 0.1541 (  2436 PWs)   bands (ev):

    -2.9909  -0.2341   5.1032  12.5863  14.8250  14.8250

          k = 0.0000-0.0000 0.2311 (  2454 PWs)   bands (ev):

    -2.5545  -1.1720   6.7946  10.5652  15.0800  15.0800

          k =-0.0000 0.0000-0.3082 (  2472 PWs)   bands (ev):

    -1.9470  -1.9470   8.6205   8.6205  15.2536  15.2536

          k =-0.0000 0.0962 0.0000 (  2451 PWs)   bands (ev):

    -3.2047   2.0377   2.4850  12.2238  13.2913  14.1010

          k =-0.0000 0.0962 0.0770 (  2447 PWs)   bands (ev):

    -3.1170   0.9881   3.6850  12.2859  13.3629  14.0483

          k =-0.0000 0.0962 0.1541 (  2448 PWs)   bands (ev):

    -2.8545  -0.1020   5.2260  12.3136  12.9269  13.5773

          k =-0.0000 0.0962 0.2311 (  2462 PWs)   bands (ev):

    -2.4187  -1.0384   6.9120  10.6502  12.9382  13.9327

          k =-0.0000 0.0962-0.3082 (  2452 PWs)   bands (ev):

    -1.8122  -1.8122   8.7289   8.7289  13.3876  13.3877

          k =-0.0000 0.1925 0.0000 (  2449 PWs)   bands (ev):

    -2.7953   2.4121   2.8779   9.7070  12.2619  12.8905

          k =-0.0000 0.1925 0.0770 (  2450 PWs)   bands (ev):

    -2.7080   1.3769   4.0610   9.7828  12.3348  12.7677

          k =-0.0000 0.1925 0.1541 (  2449 PWs)   bands (ev):

    -2.4467   0.2930   5.5872  10.0048  12.2215  12.5538

          k =-0.0000 0.1925 0.2311 (  2460 PWs)   bands (ev):

    -2.0129  -0.6388   7.2493  10.2857  11.0256  11.6794

          k =-0.0000 0.1925-0.3082 (  2460 PWs)   bands (ev):

    -1.4090  -1.4090   9.0106   9.0106  11.0055  11.0055

          k =-0.0000 0.2887 0.0000 (  2449 PWs)   bands (ev):

    -2.1170   3.0365   3.5075   7.3801  11.4625  11.5884

          k =-0.0000 0.2887 0.0770 (  2450 PWs)   bands (ev):

    -2.0304   2.0192   4.6609   7.4696  10.9432  11.5357

          k =-0.0000 0.2887 0.1541 (  2452 PWs)   bands (ev):

    -1.7711   0.9465   6.1209   7.7538  10.0494  11.7554

          k =-0.0000 0.2887 0.2311 (  2446 PWs)   bands (ev):

    -1.3405   0.0228   7.5120   8.3600   9.2541  11.5621

          k =-0.0000 0.2887-0.3082 (  2454 PWs)   bands (ev):

    -0.7413  -0.7413   8.3808   8.3808   9.8877   9.8877

          k =-0.0000 0.3849 0.0000 (  2449 PWs)   bands (ev):

    -1.1761   3.9114   4.1720   5.4749  10.1182  10.8928

          k =-0.0000 0.3849 0.0770 (  2442 PWs)   bands (ev):

    -1.0904   2.8943   4.9537   5.9322   8.9761  10.9659

          k =-0.0000 0.3849 0.1541 (  2447 PWs)   bands (ev):

    -0.8338   1.8471   5.3737   7.1863   8.0413  11.1855

          k =-0.0000 0.3849 0.2311 (  2446 PWs)   bands (ev):

    -0.4080   0.9383   5.8118   7.0848   8.8606  11.5522

          k =-0.0000 0.3849-0.3082 (  2444 PWs)   bands (ev):

     0.1841   0.1841   6.3818   6.3818  10.5122  10.5122

          k =-0.0000 0.4811 0.0000 (  2445 PWs)   bands (ev):

     0.0187   3.0821   5.0351   5.7728   8.0747   8.5660

          k =-0.0000 0.4811 0.0770 (  2440 PWs)   bands (ev):

     0.1031   3.1194   4.2017   6.7130   7.2300   9.5721

          k =-0.0000 0.4811 0.1541 (  2433 PWs)   bands (ev):

     0.3555   2.8656   3.6693   6.0999   8.2753  10.8439

          k =-0.0000 0.4811 0.2311 (  2440 PWs)   bands (ev):

     0.7736   2.0776   3.9673   5.2347   9.8049  11.2100

          k =-0.0000 0.4811-0.3082 (  2448 PWs)   bands (ev):

     1.3522   1.3522   4.5164   4.5164  11.2551  11.7233

          k = 0.0000-0.5774-0.0000 (  2432 PWs)   bands (ev):

     1.4499   1.4561   6.2465   6.6104   6.8633   7.2720

          k = 0.0000-0.5774 0.0770 (  2432 PWs)   bands (ev):

     1.5299   1.5388   5.4888   5.5221   8.1005   8.1346

          k = 0.0000-0.5774 0.1541 (  2432 PWs)   bands (ev):

     1.7675   1.7836   4.4781   4.5048   9.4118   9.5783

          k = 0.0000-0.5774 0.2311 (  2440 PWs)   bands (ev):

     2.1465   2.1706   3.6154   3.6529  10.6694  11.0959

          k = 0.0000-0.5774-0.3082 (  2432 PWs)   bands (ev):

     2.4903   2.4903   3.1433   3.1433  11.6089  11.6089

          k = 0.0833 0.1443 0.0000 (  2457 PWs)   bands (ev):

    -2.9315   2.2873   2.7479  10.8978  11.1808  15.1950

          k = 0.0833 0.1443 0.0770 (  2451 PWs)   bands (ev):

    -2.8441   1.2476   3.9366  10.9655  11.2513  14.5508

          k = 0.0833 0.1443 0.1541 (  2454 PWs)   bands (ev):

    -2.5824   0.1616   5.4685  11.1459  11.4561  12.8983

          k = 0.0833 0.1443 0.2311 (  2459 PWs)   bands (ev):

    -2.1479  -0.7718   7.1411  10.7413  11.6867  11.7530

          k = 0.0833 0.1443-0.3082 (  2466 PWs)   bands (ev):

    -1.5432  -1.5432   8.9321   8.9321  11.8916  11.8916

          k = 0.0833 0.2406 0.0000 (  2458 PWs)   bands (ev):

    -2.3877   2.7866   3.2616   8.5906  10.0643  13.2866

          k = 0.0833 0.2406 0.0770 (  2458 PWs)   bands (ev):

    -2.3008   1.7634   4.4286   8.6694  10.1261  12.4294

          k = 0.0833 0.2406 0.1541 (  2452 PWs)   bands (ev):

    -2.0407   0.6859   5.9326   8.9047  10.2755  11.5124

          k = 0.0833 0.2406 0.2311 (  2454 PWs)   bands (ev):

    -1.6088  -0.2412   7.5466   9.2863  10.2056  10.8235

          k = 0.0833 0.2406-0.3082 (  2456 PWs)   bands (ev):

    -1.0078  -1.0078   9.1252   9.1252   9.9723   9.9723

          k = 0.0833 0.3368 0.0000 (  2445 PWs)   bands (ev):

    -1.5781   3.5364   3.9701   6.4164   9.2606  11.0740

          k = 0.0833 0.3368 0.0770 (  2445 PWs)   bands (ev):

    -1.4920   2.5260   5.0769   6.5411   9.2531  10.3855

          k = 0.0833 0.3368 0.1541 (  2454 PWs)   bands (ev):

    -1.2342   1.4641   6.2268   7.1046   8.9174  10.0034

          k = 0.0833 0.3368 0.2311 (  2452 PWs)   bands (ev):

    -0.8064   0.5478   6.8745   8.0843   8.5399  10.2445

          k = 0.0833 0.3368-0.3082 (  2452 PWs)   bands (ev):

    -0.2110  -0.2110   7.4668   7.4668   9.8918   9.8918

          k = 0.0833 0.4330 0.0000 (  2434 PWs)   bands (ev):

    -0.5102   3.9626   4.5363   5.4006   8.5686   9.0747

          k = 0.0833 0.4330 0.0770 (  2438 PWs)   bands (ev):

    -0.4252   3.4431   4.3500   6.3129   8.0069   9.1245

          k = 0.0833 0.4330 0.1541 (  2445 PWs)   bands (ev):

    -0.1707   2.4701   4.5535   7.0371   7.7447   9.4106

          k = 0.0833 0.4330 0.2311 (  2443 PWs)   bands (ev):

     0.2513   1.5817   4.9511   6.2196   9.0292   9.9910

          k = 0.0833 0.4330-0.3082 (  2440 PWs)   bands (ev):

     0.8374   0.8374   5.5106   5.5106   9.8903   9.8903

          k = 0.0833 0.5293 0.0000 (  2436 PWs)   bands (ev):

     0.8053   2.3461   5.7773   6.4053   7.3300   7.6364

          k = 0.0833 0.5293 0.0770 (  2435 PWs)   bands (ev):

     0.8884   2.4213   4.8896   6.3432   7.4213   8.5010

          k = 0.0833 0.5293 0.1541 (  2433 PWs)   bands (ev):

     1.1368   2.6271   3.9048   5.3516   8.4728   9.4227

          k = 0.0833 0.5293 0.2311 (  2433 PWs)   bands (ev):

     1.5460   2.6749   3.3754   4.4842   9.1454  10.2637

          k = 0.0833 0.5293-0.3082 (  2432 PWs)   bands (ev):

     2.1006   2.1006   3.7818   3.7818   9.7523   9.7523

          k = 0.1667 0.2887 0.0000 (  2449 PWs)   bands (ev):

    -1.7125   3.4114   3.8710   7.5368   7.9506  12.1473

          k = 0.1667 0.2887 0.0770 (  2446 PWs)   bands (ev):

    -1.6263   2.4009   5.0086   7.6120   8.0390  11.5258

          k = 0.1667 0.2887 0.1541 (  2449 PWs)   bands (ev):

    -1.3681   1.3355   6.4292   7.8335   8.3065  10.5907

          k = 0.1667 0.2887 0.2311 (  2453 PWs)   bands (ev):

    -0.9396   0.4170   7.7855   8.1813   8.7071   9.7170

          k = 0.1667 0.2887-0.3082 (  2450 PWs)   bands (ev):

    -0.3432  -0.3432   8.5180   8.5180   8.9543   8.9543

          k = 0.1667 0.3849 0.0000 (  2435 PWs)   bands (ev):

    -0.7759   4.2865   4.5094   5.7724   7.1927  10.2935

          k = 0.1667 0.3849 0.0770 (  2435 PWs)   bands (ev):

    -0.6906   3.2665   5.3201   6.1374   7.3068   9.5754

          k = 0.1667 0.3849 0.1541 (  2444 PWs)   bands (ev):

    -0.4353   2.2291   5.7418   6.9921   7.7097   8.8371

          k = 0.1667 0.3849 0.2311 (  2443 PWs)   bands (ev):

    -0.0116   1.3270   6.1651   7.2162   7.8783   8.9124

          k = 0.1667 0.3849-0.3082 (  2450 PWs)   bands (ev):

     0.5774   0.5774   6.6958   6.6958   8.3476   8.3476

          k = 0.1667 0.4811 0.0000 (  2431 PWs)   bands (ev):

     0.4133   3.4595   5.4097   5.8084   6.9551   8.4428

          k = 0.1667 0.4811 0.0770 (  2430 PWs)   bands (ev):

     0.4972   3.4933   4.5581   6.4183   7.1434   8.0660

          k = 0.1667 0.4811 0.1541 (  2436 PWs)   bands (ev):

     0.7481   3.2325   4.0502   6.2972   7.0850   8.8290

          k = 0.1667 0.4811 0.2311 (  2434 PWs)   bands (ev):

     1.1635   2.4560   4.3418   5.5625   7.4391   8.6516

          k = 0.1667 0.4811-0.3082 (  2438 PWs)   bands (ev):

     1.7379   1.7379   4.8771   4.8771   7.9847   7.9847

          k = 0.1667 0.5774 0.0000 (  2436 PWs)   bands (ev):

     1.8328   1.8480   6.1142   6.6130   6.9916   7.2064

          k = 0.1667 0.5774 0.0770 (  2435 PWs)   bands (ev):

     1.9125   1.9296   5.6535   5.8987   6.6748   8.4055

          k = 0.1667 0.5774 0.1541 (  2432 PWs)   bands (ev):

     2.1488   2.1705   4.8091   4.8597   6.9100   9.1778

          k = 0.1667 0.5774 0.2311 (  2430 PWs)   bands (ev):

     2.5246   2.5494   4.0014   4.0092   7.3093   8.5467

          k = 0.1667 0.5774-0.3082 (  2428 PWs)   bands (ev):

     2.8583   2.8583   3.5305   3.5305   7.8623   7.8623

          k = 0.2500 0.4330 0.0000 (  2429 PWs)   bands (ev):

     0.2821   4.5850   4.8844   5.2858   6.4899   9.5582

          k = 0.2500 0.4330 0.0770 (  2429 PWs)   bands (ev):

     0.3662   4.1092   4.9617   5.2030   7.2005   8.9706

          k = 0.2500 0.4330 0.1541 (  2439 PWs)   bands (ev):

     0.6178   3.2039   5.1898   5.3824   7.6671   8.0602

          k = 0.2500 0.4330 0.2311 (  2441 PWs)   bands (ev):

     1.0347   2.3428   5.5486   5.7157   7.0454   7.2503

          k = 0.2500 0.4330-0.3082 (  2440 PWs)   bands (ev):

     1.6126   1.6126   5.8947   5.8947   6.7409   6.7409

          k = 0.2500 0.5293 0.0000 (  2441 PWs)   bands (ev):

     1.5845   3.1081   4.5743   6.5216   7.3291   8.0569

          k = 0.2500 0.5293 0.0770 (  2434 PWs)   bands (ev):

     1.6664   3.1806   4.6036   5.7903   7.1484   8.2524

          k = 0.2500 0.5293 0.1541 (  2431 PWs)   bands (ev):

     1.9107   3.3749   4.4510   5.1677   6.2959   7.6839

          k = 0.2500 0.5293 0.2311 (  2429 PWs)   bands (ev):

     2.3118   3.3986   4.1075   4.9981   5.8533   6.8692

          k = 0.2500 0.5293-0.3082 (  2428 PWs)   bands (ev):

     2.8504   2.8504   4.4836   4.4836   6.2049   6.2049

          k = 0.3333 0.5774 0.0000 (  2442 PWs)   bands (ev):

     2.9718   2.9946   2.9946   7.7150   7.7150   7.9087

          k = 0.3333 0.5774 0.0770 (  2436 PWs)   bands (ev):

     3.0526   3.0691   3.0691   6.9248   7.1294   7.1294

          k = 0.3333 0.5774 0.1541 (  2442 PWs)   bands (ev):

     3.2838   3.2838   3.2949   5.8812   6.2314   6.2314

          k = 0.3333 0.5774 0.2311 (  2421 PWs)   bands (ev):

     3.5918   3.5918   3.6990   4.9925   5.4761   5.4761

          k = 0.3333 0.5774-0.3082 (  2412 PWs)   bands (ev):

     3.7882   3.7882   4.2648   4.2648   5.1274   5.1274

     the Fermi energy is     3.5378 ev

!    total energy              =     -67.23392197 Ry
     total all-electron energy =      -801.342339 Ry
     estimated scf accuracy    <          2.2E-09 Ry
     smearing contrib. (-TS)   =      -0.00003246 Ry
     internal energy E=F+TS    =     -67.23388951 Ry

     The total energy is F=E-TS. E is the sum of the following terms:
     one-electron contribution =       2.83664884 Ry
     hartree contribution      =       0.00749890 Ry
     xc contribution           =      -3.18563563 Ry
     ewald contribution        =      -4.29815857 Ry
     one-center paw contrib.   =     -62.59424304 Ry

     convergence has been achieved in   2 iterations

     Forces acting on atoms (cartesian axes, Ry/au):

     atom    1 type  1   force =     0.00000000    0.00000000    0.00000000
     atom    2 type  1   force =     0.00000000    0.00000000    0.00000000

     Total force =     0.000000     Total SCF correction =     0.000000


     Computing stress (Cartesian axis) and pressure

          total   stress  (Ry/bohr**3)                   (kbar)     P=       -2.68
   0.00000063   0.00000000   0.00000000            0.09        0.00        0.00
   0.00000000   0.00000063   0.00000000            0.00        0.09        0.00
   0.00000000   0.00000000  -0.00005584            0.00        0.00       -8.21

     Energy error            =      2.9E-05 Ry
     Gradient error          =      8.8E-24 Ry/Bohr
     Cell gradient error     =      8.2E+00 kbar

     number of scf cycles    =   2
     number of bfgs steps    =   1

     enthalpy           old  =     -67.2338930474 Ry
     enthalpy           new  =     -67.2339219660 Ry

     CASE: enthalpy          _new < enthalpy          _old


     WARNING: bfgs curvature condition failed, Theta= 0.899
     new trust radius        =       0.0060793247 bohr
     new conv_thr            =            1.0E-10 Ry

     new unit-cell volume =    310.14532 a.u.^3 (    45.95879 Ang^3 )
     density =      1.75633 g/cm^3

CELL_PARAMETERS (alat=  6.04712360)
   0.999959279   0.000000000  -0.000000000
  -0.499979639   0.865990138   0.000000000
   0.000000000  -0.000000000   1.619658408

ATOMIC_POSITIONS (crystal)
Mg               0.0000000000        0.0000000000        0.0000000000
Mg               0.3333330000        0.6666670000        0.5000000000



     Writing config-only to output data dir ./tmp/mg.save/ :
     XML data file
     NEW-OLD atomic charge density approx. for the potential
     New effective cutoffs (rho, wfc):  481.50   60.38

     total cpu time spent up to now is       15.5 secs

     Self-consistent Calculation

     iteration #  1     ecut=    60.00 Ry     beta= 0.70
     Davidson diagonalization with overlap
     ethr =  1.00E-06,  avg # of iterations =  2.0

     Threshold (ethr) on eigenvalues was too large:
     Diagonalizing with lowered threshold

     Davidson diagonalization with overlap
     ethr =  9.04E-10,  avg # of iterations =  1.5

     total cpu time spent up to now is       16.4 secs

     total energy              =     -67.23394990 Ry
     estimated scf accuracy    <       0.00000004 Ry

     iteration #  2     ecut=    60.00 Ry     beta= 0.70
     Davidson diagonalization with overlap
     ethr =  9.49E-10,  avg # of iterations =  1.0

     total cpu time spent up to now is       16.7 secs

     total energy              =     -67.23394990 Ry
     estimated scf accuracy    <          2.3E-09 Ry

     iteration #  3     ecut=    60.00 Ry     beta= 0.70
     Davidson diagonalization with overlap
     ethr =  5.86E-11,  avg # of iterations =  3.8

     total cpu time spent up to now is       18.2 secs

     End of self-consistent calculation

          k = 0.0000 0.0000 0.0000 (  2479 PWs)   bands (ev):

    -3.3384   1.9296   2.3791  14.5068  14.5927  14.5928

          k = 0.0000-0.0000 0.0772 (  2460 PWs)   bands (ev):

    -3.2503   0.8748   3.5853  14.5430  14.6527  14.6528

          k = 0.0000-0.0000 0.1544 (  2436 PWs)   bands (ev):

    -2.9865  -0.2205   5.1347  12.6382  14.8271  14.8272

          k = 0.0000-0.0000 0.2315 (  2454 PWs)   bands (ev):

    -2.5486  -1.1615   6.8313  10.6128  15.0830  15.0830

          k =-0.0000 0.0000-0.3087 (  2472 PWs)   bands (ev):

    -1.9391  -1.9391   8.6626   8.6626  15.2577  15.2577

          k =-0.0000 0.0962 0.0000 (  2451 PWs)   bands (ev):

    -3.2015   2.0543   2.5117  12.2268  13.2932  14.1066

          k =-0.0000 0.0962 0.0772 (  2447 PWs)   bands (ev):

    -3.1136   1.0049   3.7120  12.2897  13.3650  14.0605

          k =-0.0000 0.0962 0.1544 (  2448 PWs)   bands (ev):

    -2.8502  -0.0884   5.2574  12.3345  12.9600  13.5801

          k =-0.0000 0.0962 0.2315 (  2462 PWs)   bands (ev):

    -2.4129  -1.0279   6.9485  10.6967  12.9434  13.9365

          k =-0.0000 0.0962-0.3087 (  2452 PWs)   bands (ev):

    -1.8043  -1.8043   8.7706   8.7706  13.3936  13.3936

          k =-0.0000 0.1925 0.0000 (  2449 PWs)   bands (ev):

    -2.7921   2.4285   2.9044   9.7103  12.2639  12.8966

          k =-0.0000 0.1925 0.0772 (  2450 PWs)   bands (ev):

    -2.7045   1.3935   4.0877   9.7864  12.3371  12.7752

          k =-0.0000 0.1925 0.1544 (  2449 PWs)   bands (ev):

    -2.4423   0.3065   5.6182  10.0097  12.2319  12.5567

          k =-0.0000 0.1925 0.2315 (  2460 PWs)   bands (ev):

    -2.0070  -0.6283   7.2848  10.2983  11.0569  11.6948

          k =-0.0000 0.1925-0.3087 (  2460 PWs)   bands (ev):

    -1.4012  -1.4012   9.0497   9.0497  11.0141  11.0141

          k =-0.0000 0.2887 0.0000 (  2449 PWs)   bands (ev):

    -2.1139   3.0527   3.5333   7.3842  11.4646  11.5989

          k =-0.0000 0.2887 0.0772 (  2450 PWs)   bands (ev):

    -2.0270   2.0356   4.6865   7.4743  10.9556  11.5380

          k =-0.0000 0.2887 0.1544 (  2452 PWs)   bands (ev):

    -1.7667   0.9598   6.1489   7.7611  10.0605  11.7585

          k =-0.0000 0.2887 0.2315 (  2446 PWs)   bands (ev):

    -1.3347   0.0331   7.5326   8.3798   9.2643  11.6014

          k =-0.0000 0.2887-0.3087 (  2454 PWs)   bands (ev):

    -0.7335  -0.7335   8.3912   8.3912   9.9243   9.9243

          k =-0.0000 0.3849 0.0000 (  2449 PWs)   bands (ev):

    -1.1730   3.9273   4.1907   5.4859  10.1355  10.8950

          k =-0.0000 0.3849 0.0772 (  2442 PWs)   bands (ev):

    -1.0870   2.9101   4.9627   5.9536   8.9902  10.9684

          k =-0.0000 0.3849 0.1544 (  2447 PWs)   bands (ev):

    -0.8296   1.8600   5.3788   7.2152   8.0539  11.1887

          k =-0.0000 0.3849 0.2315 (  2446 PWs)   bands (ev):

    -0.4023   0.9484   5.8175   7.0948   8.8942  11.5564

          k =-0.0000 0.3849-0.3087 (  2444 PWs)   bands (ev):

     0.1918   0.1918   6.3892   6.3892  10.5487  10.5487

          k =-0.0000 0.4811 0.0000 (  2445 PWs)   bands (ev):

     0.0217   3.0854   5.0507   5.7988   8.0892   8.5882

          k =-0.0000 0.4811 0.0772 (  2440 PWs)   bands (ev):

     0.1064   3.1237   4.2165   6.7379   7.2461   9.5932

          k =-0.0000 0.4811 0.1544 (  2433 PWs)   bands (ev):

     0.3597   2.8760   3.6759   6.1125   8.3041  10.8471

          k =-0.0000 0.4811 0.2315 (  2440 PWs)   bands (ev):

     0.7792   2.0873   3.9731   5.2445   9.8360  11.2143

          k =-0.0000 0.4811-0.3087 (  2448 PWs)   bands (ev):

     1.3597   1.3597   4.5239   4.5239  11.2826  11.7291

          k = 0.0000-0.5774-0.0000 (  2432 PWs)   bands (ev):

     1.4532   1.4589   6.2618   6.6252   6.8907   7.2944

          k = 0.0000-0.5774 0.0772 (  2432 PWs)   bands (ev):

     1.5335   1.5419   5.5035   5.5385   8.1267   8.1571

          k = 0.0000-0.5774 0.1544 (  2432 PWs)   bands (ev):

     1.7719   1.7875   4.4913   4.5170   9.4345   9.6086

          k = 0.0000-0.5774 0.2315 (  2440 PWs)   bands (ev):

     2.1522   2.1758   3.6257   3.6626  10.6893  11.1003

          k = 0.0000-0.5774-0.3087 (  2432 PWs)   bands (ev):

     2.4971   2.4971   3.1515   3.1515  11.6148  11.6148

          k = 0.0833 0.1443 0.0000 (  2457 PWs)   bands (ev):

    -2.9284   2.3037   2.7745  10.9008  11.1841  15.2007

          k = 0.0833 0.1443 0.0772 (  2451 PWs)   bands (ev):

    -2.8407   1.2642   3.9633  10.9689  11.2549  14.5732

          k = 0.0833 0.1443 0.1544 (  2454 PWs)   bands (ev):

    -2.5781   0.1751   5.4996  11.1516  11.4604  12.9400

          k = 0.0833 0.1443 0.2315 (  2459 PWs)   bands (ev):

    -2.1421  -0.7613   7.1770  10.7814  11.6957  11.7584

          k = 0.0833 0.1443-0.3087 (  2466 PWs)   bands (ev):

    -1.5353  -1.5353   8.9727   8.9727  11.8973  11.8973

          k = 0.0833 0.2406 0.0000 (  2458 PWs)   bands (ev):

    -2.3846   2.8029   3.2878   8.5941  10.0679  13.2993

          k = 0.0833 0.2406 0.0772 (  2458 PWs)   bands (ev):

    -2.2974   1.7798   4.4549   8.6733  10.1301  12.4434

          k = 0.0833 0.2406 0.1544 (  2452 PWs)   bands (ev):

    -2.0364   0.6993   5.9627   8.9098  10.2805  11.5254

          k = 0.0833 0.2406 0.2315 (  2454 PWs)   bands (ev):

    -1.6030  -0.2308   7.5799   9.2943  10.2131  10.8451

          k = 0.0833 0.2406-0.3087 (  2456 PWs)   bands (ev):

    -0.9999  -0.9999   9.1540   9.1540   9.9876   9.9876

          k = 0.0833 0.3368 0.0000 (  2445 PWs)   bands (ev):

    -1.5750   3.5524   3.9944   6.4216   9.2651  11.0876

          k = 0.0833 0.3368 0.0772 (  2445 PWs)   bands (ev):

    -1.4886   2.5421   5.0997   6.5482   9.2587  10.3985

          k = 0.0833 0.3368 0.1544 (  2454 PWs)   bands (ev):

    -1.2299   1.4772   6.2406   7.1253   8.9267  10.0119

          k = 0.0833 0.3368 0.2315 (  2452 PWs)   bands (ev):

    -0.8006   0.5580   6.8814   8.0990   8.5651  10.2555

          k = 0.0833 0.3368-0.3087 (  2452 PWs)   bands (ev):

    -0.2033  -0.2033   7.4744   7.4744   9.9176   9.9176

          k = 0.0833 0.4330 0.0000 (  2434 PWs)   bands (ev):

    -0.5071   3.9685   4.5520   5.4238   8.5768   9.0889

          k = 0.0833 0.4330 0.0772 (  2438 PWs)   bands (ev):

    -0.4218   3.4568   4.3558   6.3384   8.0194   9.1325

          k = 0.0833 0.4330 0.1544 (  2445 PWs)   bands (ev):

    -0.1665   2.4827   4.5581   7.0506   7.7699   9.4199

          k = 0.0833 0.4330 0.2315 (  2443 PWs)   bands (ev):

     0.2569   1.5917   4.9567   6.2293   9.0492  10.0099

          k = 0.0833 0.4330-0.3087 (  2440 PWs)   bands (ev):

     0.8450   0.8450   5.5180   5.5180   9.9020   9.9020

          k = 0.0833 0.5293 0.0000 (  2436 PWs)   bands (ev):

     0.8083   2.3491   5.7926   6.4300   7.3447   7.6544

          k = 0.0833 0.5293 0.0772 (  2435 PWs)   bands (ev):

     0.8918   2.4247   4.9050   6.3588   7.4423   8.5166

          k = 0.0833 0.5293 0.1544 (  2433 PWs)   bands (ev):

     1.1410   2.6315   3.9172   5.3641   8.4858   9.4459

          k = 0.0833 0.5293 0.2315 (  2433 PWs)   bands (ev):

     1.5516   2.6827   3.3831   4.4940   9.1532  10.2801

          k = 0.0833 0.5293-0.3087 (  2432 PWs)   bands (ev):

     2.1079   2.1079   3.7895   3.7895   9.7608   9.7608

          k = 0.1667 0.2887 0.0000 (  2449 PWs)   bands (ev):

    -1.7094   3.4275   3.8961   7.5398   7.9560  12.1601

          k = 0.1667 0.2887 0.0772 (  2446 PWs)   bands (ev):

    -1.6229   2.4172   5.0335   7.6152   8.0451  11.5394

          k = 0.1667 0.2887 0.1544 (  2449 PWs)   bands (ev):

    -1.3638   1.3486   6.4555   7.8376   8.3157  10.6030

          k = 0.1667 0.2887 0.2315 (  2453 PWs)   bands (ev):

    -0.9338   0.4272   7.8060   8.1867   8.7235   9.7285

          k = 0.1667 0.2887-0.3087 (  2450 PWs)   bands (ev):

    -0.3355  -0.3355   8.5241   8.5241   8.9711   8.9711

          k = 0.1667 0.3849 0.0000 (  2435 PWs)   bands (ev):

    -0.7728   4.3023   4.5277   5.7810   7.1994  10.3072

          k = 0.1667 0.3849 0.0772 (  2435 PWs)   bands (ev):

    -0.6872   3.2821   5.3293   6.1535   7.3162   9.5900

          k = 0.1667 0.3849 0.1544 (  2444 PWs)   bands (ev):

    -0.4310   2.2419   5.7468   7.0026   7.7310   8.8523

          k = 0.1667 0.3849 0.2315 (  2443 PWs)   bands (ev):

    -0.0059   1.3370   6.1707   7.2233   7.8902   8.9266

          k = 0.1667 0.3849-0.3087 (  2450 PWs)   bands (ev):

     0.5850   0.5850   6.7028   6.7028   8.3567   8.3567

          k = 0.1667 0.4811 0.0000 (  2431 PWs)   bands (ev):

     0.4164   3.4628   5.4251   5.8245   6.9700   8.4572

          k = 0.1667 0.4811 0.0772 (  2430 PWs)   bands (ev):

     0.5005   3.4976   4.5725   6.4256   7.1649   8.0835

          k = 0.1667 0.4811 0.1544 (  2436 PWs)   bands (ev):

     0.7523   3.2427   4.0568   6.3070   7.0940   8.8545

          k = 0.1667 0.4811 0.2315 (  2434 PWs)   bands (ev):

     1.1691   2.4656   4.3476   5.5719   7.4458   8.6623

          k = 0.1667 0.4811-0.3087 (  2438 PWs)   bands (ev):

     1.7453   1.7453   4.8845   4.8845   7.9927   7.9927

          k = 0.1667 0.5774 0.0000 (  2436 PWs)   bands (ev):

     1.8361   1.8508   6.1198   6.6282   7.0064   7.2337

          k = 0.1667 0.5774 0.0772 (  2435 PWs)   bands (ev):

     1.9160   1.9326   5.6648   5.9152   6.6826   8.4308

          k = 0.1667 0.5774 0.1544 (  2432 PWs)   bands (ev):

     2.1532   2.1744   4.8205   4.8729   6.9156   9.1947

          k = 0.1667 0.5774 0.2315 (  2430 PWs)   bands (ev):

     2.5303   2.5546   4.0117   4.0186   7.3155   8.5570

          k = 0.1667 0.5774-0.3087 (  2428 PWs)   bands (ev):

     2.8650   2.8650   3.5386   3.5386   7.8701   7.8701

          k = 0.2500 0.4330 0.0000 (  2429 PWs)   bands (ev):

     0.2852   4.5916   4.8875   5.3013   6.5138   9.5720

          k = 0.2500 0.4330 0.0772 (  2429 PWs)   bands (ev):

     0.3696   4.1216   4.9650   5.2103   7.2266   8.9846

          k = 0.2500 0.4330 0.1544 (  2439 PWs)   bands (ev):

     0.6220   3.2160   5.1939   5.3874   7.6839   8.0723

          k = 0.2500 0.4330 0.2315 (  2441 PWs)   bands (ev):

     1.0403   2.3526   5.5540   5.7214   7.0562   7.2601

          k = 0.2500 0.4330-0.3087 (  2440 PWs)   bands (ev):

     1.6201   1.6201   5.9013   5.9013   6.7496   6.7496

          k = 0.2500 0.5293 0.0000 (  2441 PWs)   bands (ev):

     1.5875   3.1112   4.5776   6.5367   7.3562   8.0714

          k = 0.2500 0.5293 0.0772 (  2434 PWs)   bands (ev):

     1.6697   3.1840   4.6077   5.8052   7.1648   8.2731

          k = 0.2500 0.5293 0.1544 (  2431 PWs)   bands (ev):

     1.9148   3.3793   4.4598   5.1760   6.3083   7.6969

          k = 0.2500 0.5293 0.2315 (  2429 PWs)   bands (ev):

     2.3172   3.4061   4.1148   5.0060   5.8616   6.8793

          k = 0.2500 0.5293-0.3087 (  2428 PWs)   bands (ev):

     2.8574   2.8574   4.4910   4.4910   6.2130   6.2130

          k = 0.3333 0.5774 0.0000 (  2442 PWs)   bands (ev):

     2.9753   2.9973   2.9973   7.7296   7.7296   7.9354

          k = 0.3333 0.5774 0.0772 (  2436 PWs)   bands (ev):

     3.0563   3.0722   3.0722   6.9426   7.1438   7.1438

          k = 0.3333 0.5774 0.1544 (  2442 PWs)   bands (ev):

     3.2876   3.2876   3.2995   5.8948   6.2438   6.2438

          k = 0.3333 0.5774 0.2315 (  2421 PWs)   bands (ev):

     3.5968   3.5968   3.7049   5.0029   5.4861   5.4861

          k = 0.3333 0.5774-0.3087 (  2412 PWs)   bands (ev):

     3.7941   3.7941   4.2727   4.2727   5.1361   5.1361

     the Fermi energy is     3.5478 ev

!    total energy              =     -67.23394990 Ry
     total all-electron energy =      -801.342367 Ry
     estimated scf accuracy    <          5.9E-12 Ry
     smearing contrib. (-TS)   =      -0.00003091 Ry
     internal energy E=F+TS    =     -67.23391899 Ry

     The total energy is F=E-TS. E is the sum of the following terms:
     one-electron contribution =       2.84038707 Ry
     hartree contribution      =       0.00754461 Ry
     xc contribution           =      -3.18670683 Ry
     ewald contribution        =      -4.30059307 Ry
     one-center paw contrib.   =     -62.59455077 Ry

     convergence has been achieved in   3 iterations

     Forces acting on atoms (cartesian axes, Ry/au):

     atom    1 type  1   force =     0.00000000    0.00000000    0.00000000
     atom    2 type  1   force =     0.00000000    0.00000000    0.00000000

     Total force =     0.000000     Total SCF correction =     0.000000


     Computing stress (Cartesian axis) and pressure

          total   stress  (Ry/bohr**3)                   (kbar)     P=       -2.07
   0.00000305   0.00000000   0.00000000            0.45        0.00        0.00
   0.00000000   0.00000305   0.00000000            0.00        0.45        0.00
   0.00000000   0.00000000  -0.00004835            0.00        0.00       -7.11

     Energy error            =      2.8E-05 Ry
     Gradient error          =      0.0E+00 Ry/Bohr
     Cell gradient error     =      7.1E+00 kbar

     number of scf cycles    =   3
     number of bfgs steps    =   2

     enthalpy           old  =     -67.2339219660 Ry
     enthalpy           new  =     -67.2339498996 Ry

     CASE: enthalpy          _new < enthalpy          _old

     new trust radius        =       0.0091269260 bohr
     new conv_thr            =            1.0E-10 Ry

     new unit-cell volume =    309.41222 a.u.^3 (    45.85016 Ang^3 )
     density =      1.76049 g/cm^3

CELL_PARAMETERS (alat=  6.04712360)
   1.000073333   0.000000000   0.000000000
  -0.500036667   0.866088912   0.000000000
   0.000000000  -0.000000000   1.615461443

ATOMIC_POSITIONS (crystal)
Mg               0.0000000000        0.0000000000        0.0000000000
Mg               0.3333330000        0.6666670000        0.5000000000



     Writing config-only to output data dir ./tmp/mg.save/ :
     XML data file
     NEW-OLD atomic charge density approx. for the potential
     New effective cutoffs (rho, wfc):  483.98   60.69

     total cpu time spent up to now is       18.7 secs

     Self-consistent Calculation

     iteration #  1     ecut=    60.00 Ry     beta= 0.70
     Davidson diagonalization with overlap
     ethr =  1.00E-06,  avg # of iterations =  2.1

     Threshold (ethr) on eigenvalues was too large:
     Diagonalizing with lowered threshold

     Davidson diagonalization with overlap
     ethr =  2.08E-09,  avg # of iterations =  1.5

     total cpu time spent up to now is       19.6 secs

     total energy              =     -67.23398461 Ry
     estimated scf accuracy    <       0.00000009 Ry

     iteration #  2     ecut=    60.00 Ry     beta= 0.70
     Davidson diagonalization with overlap
     ethr =  2.21E-09,  avg # of iterations =  1.0

     total cpu time spent up to now is       20.0 secs

     total energy              =     -67.23398460 Ry
     estimated scf accuracy    <          5.3E-09 Ry

     iteration #  3     ecut=    60.00 Ry     beta= 0.70
     Davidson diagonalization with overlap
     ethr =  1.32E-10,  avg # of iterations =  3.3

     total cpu time spent up to now is       21.3 secs

     End of self-consistent calculation

          k = 0.0000 0.0000 0.0000 (  2479 PWs)   bands (ev):

    -3.3340   1.9544   2.4192  14.5065  14.5907  14.5908

          k =-0.0000-0.0000 0.0774 (  2460 PWs)   bands (ev):

    -3.2455   0.8999   3.6258  14.6136  14.6510  14.6511

          k =-0.0000-0.0000 0.1548 (  2436 PWs)   bands (ev):

    -2.9803  -0.2004   5.1820  12.7159  14.8263  14.8263

          k =-0.0000-0.0000 0.2321 (  2454 PWs)   bands (ev):

    -2.5401  -1.1460   6.8862  10.6841  15.0836  15.0836

          k = 0.0000 0.0000-0.3095 (  2472 PWs)   bands (ev):

    -1.9275  -1.9275   8.7258   8.7258  15.2604  15.2604

          k =-0.0000 0.0962 0.0000 (  2451 PWs)   bands (ev):

    -3.1972   2.0790   2.5517  12.2281  13.2924  14.1115

          k =-0.0000 0.0962 0.0774 (  2447 PWs)   bands (ev):

    -3.1087   1.0298   3.7523  12.2919  13.3645  14.0746

          k =-0.0000 0.0962 0.1548 (  2448 PWs)   bands (ev):

    -2.8440  -0.0684   5.3044  12.3604  13.0112  13.5805

          k =-0.0000 0.0962 0.2321 (  2462 PWs)   bands (ev):

    -2.4044  -1.0124   7.0031  10.7664  12.9479  13.9387

          k =-0.0000 0.0962-0.3095 (  2452 PWs)   bands (ev):

    -1.7927  -1.7927   8.8332   8.8332  13.3992  13.3992

          k =-0.0000 0.1924 0.0000 (  2449 PWs)   bands (ev):

    -2.7879   2.4529   2.9439   9.7124  12.2634  12.9027

          k =-0.0000 0.1924 0.0774 (  2450 PWs)   bands (ev):

    -2.6998   1.4182   4.1275   9.7890  12.3369  12.7836

          k =-0.0000 0.1924 0.1548 (  2449 PWs)   bands (ev):

    -2.4362   0.3263   5.6644  10.0141  12.2448  12.5575

          k =-0.0000 0.1924 0.2321 (  2460 PWs)   bands (ev):

    -1.9987  -0.6131   7.3379  10.3139  11.1024  11.7167

          k =-0.0000 0.1924-0.3095 (  2460 PWs)   bands (ev):

    -1.3898  -1.3898   9.1082   9.1082  11.0245  11.0245

          k =-0.0000 0.2887 0.0000 (  2449 PWs)   bands (ev):

    -2.1098   3.0766   3.5715   7.3879  11.4644  11.6121

          k =-0.0000 0.2887 0.0774 (  2450 PWs)   bands (ev):

    -2.0224   2.0596   4.7246   7.4789  10.9718  11.5381

          k =-0.0000 0.2887 0.1548 (  2452 PWs)   bands (ev):

    -1.7608   0.9792   6.1903   7.7700  10.0749  11.7596

          k =-0.0000 0.2887 0.2321 (  2446 PWs)   bands (ev):

    -1.3266   0.0481   7.5615   8.4087   9.2776  11.6594

          k =-0.0000 0.2887-0.3095 (  2454 PWs)   bands (ev):

    -0.7223  -0.7223   8.4044   8.4044   9.9787   9.9787

          k =-0.0000 0.3849 0.0000 (  2449 PWs)   bands (ev):

    -1.1691   3.9506   4.2175   5.5009  10.1596  10.8949

          k =-0.0000 0.3849 0.0774 (  2442 PWs)   bands (ev):

    -1.0827   2.9331   4.9744   5.9849   9.0094  10.9687

          k =-0.0000 0.3849 0.1548 (  2447 PWs)   bands (ev):

    -0.8239   1.8788   5.3845   7.2578   8.0711  11.1900

          k =-0.0000 0.3849 0.2321 (  2446 PWs)   bands (ev):

    -0.3945   0.9630   5.8242   7.1080   8.9441  11.5594

          k =-0.0000 0.3849-0.3095 (  2444 PWs)   bands (ev):

     0.2026   0.2026   6.3984   6.3984  10.6025  10.6025

          k =-0.0000 0.4811 0.0000 (  2445 PWs)   bands (ev):

     0.0253   3.0889   5.0732   5.8369   8.1096   8.6201

          k =-0.0000 0.4811 0.0774 (  2440 PWs)   bands (ev):

     0.1104   3.1286   4.2378   6.7741   7.2689   9.6234

          k =-0.0000 0.4811 0.1548 (  2433 PWs)   bands (ev):

     0.3650   2.8905   3.6844   6.1299   8.3466  10.8486

          k =-0.0000 0.4811 0.2321 (  2440 PWs)   bands (ev):

     0.7866   2.1010   3.9803   5.2576   9.8818  11.2175

          k =-0.0000 0.4811-0.3095 (  2448 PWs)   bands (ev):

     1.3701   1.3701   4.5335   4.5335  11.3222  11.7346

          k = 0.0000-0.5773-0.0000 (  2432 PWs)   bands (ev):

     1.4570   1.4616   6.2835   6.6465   6.9309   7.3267

          k = 0.0000-0.5773 0.0774 (  2432 PWs)   bands (ev):

     1.5378   1.5450   5.5243   5.5622   8.1651   8.1895

          k = 0.0000-0.5773 0.1548 (  2432 PWs)   bands (ev):

     1.7773   1.7919   4.5100   4.5340   9.4671   9.6531

          k = 0.0000-0.5773 0.2321 (  2440 PWs)   bands (ev):

     2.1597   2.1824   3.6400   3.6757  10.7173  11.1035

          k = 0.0000-0.5773-0.3095 (  2432 PWs)   bands (ev):

     2.5062   2.5062   3.1624   3.1624  11.6204  11.6204

          k = 0.0833 0.1443 0.0000 (  2457 PWs)   bands (ev):

    -2.9241   2.3282   2.8142  10.9023  11.1856  15.2054

          k = 0.0833 0.1443 0.0774 (  2451 PWs)   bands (ev):

    -2.8359   1.2890   4.0034  10.9711  11.2568  14.6015

          k = 0.0833 0.1443 0.1548 (  2454 PWs)   bands (ev):

    -2.5719   0.1949   5.5462  11.1574  11.4636  13.0010

          k = 0.0833 0.1443 0.2321 (  2459 PWs)   bands (ev):

    -2.1337  -0.7460   7.2308  10.8402  11.7074  11.7634

          k = 0.0833 0.1443-0.3095 (  2466 PWs)   bands (ev):

    -1.5239  -1.5239   9.0336   9.0336  11.9030  11.9030

          k = 0.0833 0.2405 0.0000 (  2458 PWs)   bands (ev):

    -2.3804   2.8270   3.3267   8.5967  10.0703  13.3158

          k = 0.0833 0.2405 0.0774 (  2458 PWs)   bands (ev):

    -2.2928   1.8041   4.4940   8.6765  10.1330  12.4617

          k = 0.0833 0.2405 0.1548 (  2452 PWs)   bands (ev):

    -2.0304   0.7188   6.0076   8.9148  10.2853  11.5421

          k = 0.0833 0.2405 0.2321 (  2454 PWs)   bands (ev):

    -1.5948  -0.2157   7.6294   9.3039  10.2217  10.8746

          k = 0.0833 0.2405-0.3095 (  2456 PWs)   bands (ev):

    -0.9887  -0.9887   9.1952   9.1952  10.0095  10.0095

          k = 0.0833 0.3368 0.0000 (  2445 PWs)   bands (ev):

    -1.5710   3.5760   4.0303   6.4273   9.2691  11.1058

          k = 0.0833 0.3368 0.0774 (  2445 PWs)   bands (ev):

    -1.4842   2.5658   5.1332   6.5571   9.2646  10.4157

          k = 0.0833 0.3368 0.1548 (  2454 PWs)   bands (ev):

    -1.2242   1.4963   6.2593   7.1556   8.9384  10.0218

          k = 0.0833 0.3368 0.2321 (  2452 PWs)   bands (ev):

    -0.7927   0.5727   6.8897   8.1186   8.6025  10.2695

          k = 0.0833 0.3368-0.3095 (  2452 PWs)   bands (ev):

    -0.1923  -0.1923   7.4838   7.4838   9.9543   9.9543

          k = 0.0833 0.4330 0.0000 (  2434 PWs)   bands (ev):

    -0.5034   3.9757   4.5749   5.4576   8.5867   9.1085

          k = 0.0833 0.4330 0.0774 (  2438 PWs)   bands (ev):

    -0.4176   3.4766   4.3629   6.3758   8.0364   9.1420

          k = 0.0833 0.4330 0.1548 (  2445 PWs)   bands (ev):

    -0.1610   2.5008   4.5632   7.0690   7.8067   9.4316

          k = 0.0833 0.4330 0.2321 (  2443 PWs)   bands (ev):

     0.2645   1.6058   4.9633   6.2420   9.0768  10.0367

          k = 0.0833 0.4330-0.3095 (  2440 PWs)   bands (ev):

     0.8556   0.8556   5.5273   5.5273   9.9169   9.9169

          k = 0.0833 0.5292 0.0000 (  2436 PWs)   bands (ev):

     0.8117   2.3522   5.8146   6.4659   7.3656   7.6798

          k = 0.0833 0.5292 0.0774 (  2435 PWs)   bands (ev):

     0.8956   2.4283   4.9272   6.3808   7.4725   8.5385

          k = 0.0833 0.5292 0.1548 (  2433 PWs)   bands (ev):

     1.1461   2.6367   3.9348   5.3815   8.5031   9.4797

          k = 0.0833 0.5292 0.2321 (  2433 PWs)   bands (ev):

     1.5587   2.6932   3.3933   4.5074   9.1623  10.3022

          k = 0.0833 0.5292-0.3095 (  2432 PWs)   bands (ev):

     2.1177   2.1177   3.7995   3.7995   9.7711   9.7711

          k = 0.1667 0.2887 0.0000 (  2449 PWs)   bands (ev):

    -1.7054   3.4511   3.9333   7.5420   7.9613  12.1769

          k = 0.1667 0.2887 0.0774 (  2446 PWs)   bands (ev):

    -1.6184   2.4409   5.0703   7.6178   8.0517  11.5572

          k = 0.1667 0.2887 0.1548 (  2449 PWs)   bands (ev):

    -1.3580   1.3678   6.4944   7.8414   8.3272  10.6188

          k = 0.1667 0.2887 0.2321 (  2453 PWs)   bands (ev):

    -0.9258   0.4420   7.8348   8.1926   8.7469   9.7434

          k = 0.1667 0.2887-0.3095 (  2450 PWs)   bands (ev):

    -0.3245  -0.3245   8.5311   8.5311   8.9939   8.9939

          k = 0.1667 0.3849 0.0000 (  2435 PWs)   bands (ev):

    -0.7690   4.3253   4.5540   5.7924   7.2072  10.3259

          k = 0.1667 0.3849 0.0774 (  2435 PWs)   bands (ev):

    -0.6830   3.3048   5.3413   6.1764   7.3284   9.6099

          k = 0.1667 0.3849 0.1548 (  2444 PWs)   bands (ev):

    -0.4255   2.2604   5.7523   7.0161   7.7620   8.8730

          k = 0.1667 0.3849 0.2321 (  2443 PWs)   bands (ev):

     0.0018   1.3513   6.1771   7.2320   7.9059   8.9456

          k = 0.1667 0.3849-0.3095 (  2450 PWs)   bands (ev):

     0.5957   0.5957   6.7114   6.7114   8.3680   8.3680

          k = 0.1667 0.4811 0.0000 (  2431 PWs)   bands (ev):

     0.4198   3.4662   5.4473   5.8469   6.9909   8.4773

          k = 0.1667 0.4811 0.0774 (  2430 PWs)   bands (ev):

     0.5045   3.5024   4.5929   6.4345   7.1959   8.1082

          k = 0.1667 0.4811 0.1548 (  2436 PWs)   bands (ev):

     0.7575   3.2569   4.0651   6.3200   7.1055   8.8913

          k = 0.1667 0.4811 0.2321 (  2434 PWs)   bands (ev):

     1.1764   2.4790   4.3547   5.5843   7.4536   8.6763

          k = 0.1667 0.4811-0.3095 (  2438 PWs)   bands (ev):

     1.7554   1.7554   4.8939   4.8939   8.0024   8.0024

          k = 0.1667 0.5773 0.0000 (  2436 PWs)   bands (ev):

     1.8398   1.8534   6.1263   6.6495   7.0274   7.2736

          k = 0.1667 0.5773 0.0774 (  2435 PWs)   bands (ev):

     1.9202   1.9356   5.6803   5.9388   6.6923   8.4679

          k = 0.1667 0.5773 0.1548 (  2432 PWs)   bands (ev):

     2.1586   2.1787   4.8361   4.8915   6.9217   9.2180

          k = 0.1667 0.5773 0.2321 (  2430 PWs)   bands (ev):

     2.5377   2.5610   4.0259   4.0312   7.3224   8.5702

          k = 0.1667 0.5773-0.3095 (  2428 PWs)   bands (ev):

     2.8739   2.8739   3.5494   3.5494   7.8795   7.8795

          k = 0.2500 0.4330 0.0000 (  2429 PWs)   bands (ev):

     0.2887   4.5999   4.8904   5.3236   6.5483   9.5909

          k = 0.2500 0.4330 0.0774 (  2429 PWs)   bands (ev):

     0.3735   4.1391   4.9683   5.2195   7.2648   9.0034

          k = 0.2500 0.4330 0.1548 (  2439 PWs)   bands (ev):

     0.6273   3.2331   5.1985   5.3930   7.7073   8.0882

          k = 0.2500 0.4330 0.2321 (  2441 PWs)   bands (ev):

     1.0477   2.3662   5.5605   5.7279   7.0705   7.2727

          k = 0.2500 0.4330-0.3095 (  2440 PWs)   bands (ev):

     1.6303   1.6303   5.9094   5.9094   6.7603   6.7603

          k = 0.2500 0.5292 0.0000 (  2441 PWs)   bands (ev):

     1.5907   3.1141   4.5809   6.5581   7.3957   8.0917

          k = 0.2500 0.5292 0.0774 (  2434 PWs)   bands (ev):

     1.6734   3.1874   4.6122   5.8261   7.1878   8.3028

          k = 0.2500 0.5292 0.1548 (  2431 PWs)   bands (ev):

     1.9197   3.3843   4.4716   5.1868   6.3253   7.7144

          k = 0.2500 0.5292 0.2321 (  2429 PWs)   bands (ev):

     2.3241   3.4160   4.1244   5.0165   5.8719   6.8925

          k = 0.2500 0.5292-0.3095 (  2428 PWs)   bands (ev):

     2.8668   2.8668   4.5005   4.5005   6.2230   6.2230

          k = 0.3333 0.5773 0.0000 (  2442 PWs)   bands (ev):

     2.9792   2.9997   2.9997   7.7500   7.7500   7.9745

          k = 0.3333 0.5773 0.0774 (  2436 PWs)   bands (ev):

     3.0606   3.0750   3.0750   6.9681   7.1638   7.1638

          k = 0.3333 0.5773 0.1548 (  2442 PWs)   bands (ev):

     3.2917   3.2917   3.3051   5.9140   6.2605   6.2605

          k = 0.3333 0.5773 0.2321 (  2421 PWs)   bands (ev):

     3.6028   3.6028   3.7126   5.0174   5.4992   5.4992

          k = 0.3333 0.5773-0.3095 (  2412 PWs)   bands (ev):

     3.8014   3.8014   4.2833   4.2833   5.1471   5.1471

     the Fermi energy is     3.5616 ev

!    total energy              =     -67.23398461 Ry
     total all-electron energy =      -801.342402 Ry
     estimated scf accuracy    <          1.6E-11 Ry
     smearing contrib. (-TS)   =      -0.00002852 Ry
     internal energy E=F+TS    =     -67.23395609 Ry

     The total energy is F=E-TS. E is the sum of the following terms:
     one-electron contribution =       2.84556077 Ry
     hartree contribution      =       0.00761120 Ry
     xc contribution           =      -3.18819382 Ry
     ewald contribution        =      -4.30395100 Ry
     one-center paw contrib.   =     -62.59498324 Ry

     convergence has been achieved in   3 iterations

     Forces acting on atoms (cartesian axes, Ry/au):

     atom    1 type  1   force =     0.00000000    0.00000000    0.00000000
     atom    2 type  1   force =     0.00000000    0.00000000    0.00000000

     Total force =     0.000000     Total SCF correction =     0.000000


     Computing stress (Cartesian axis) and pressure

          total   stress  (Ry/bohr**3)                   (kbar)     P=       -1.22
   0.00000607  -0.00000000  -0.00000000            0.89       -0.00       -0.00
  -0.00000000   0.00000607  -0.00000000           -0.00        0.89       -0.00
  -0.00000000   0.00000000  -0.00003711           -0.00        0.00       -5.46

     Energy error            =      3.5E-05 Ry
     Gradient error          =      0.0E+00 Ry/Bohr
     Cell gradient error     =      5.5E+00 kbar

     number of scf cycles    =   4
     number of bfgs steps    =   3

     enthalpy           old  =     -67.2339498996 Ry
     enthalpy           new  =     -67.2339846065 Ry

     CASE: enthalpy          _new < enthalpy          _old

     new trust radius        =       0.0137097248 bohr
     new conv_thr            =            1.0E-10 Ry

     new unit-cell volume =    308.41481 a.u.^3 (    45.70236 Ang^3 )
     density =      1.76618 g/cm^3

CELL_PARAMETERS (alat=  6.04712360)
   1.000411332  -0.000000000   0.000000000
  -0.500205666   0.866381628   0.000000000
  -0.000000000  -0.000000000   1.609165996

ATOMIC_POSITIONS (crystal)
Mg               0.0000000000        0.0000000000        0.0000000000
Mg               0.3333330000        0.6666670000        0.5000000000



     Writing config-only to output data dir ./tmp/mg.save/ :
     XML data file
     NEW-OLD atomic charge density approx. for the potential
     New effective cutoffs (rho, wfc):  487.72   61.16

     total cpu time spent up to now is       21.8 secs

     Self-consistent Calculation

     iteration #  1     ecut=    60.00 Ry     beta= 0.70
     Davidson diagonalization with overlap
     ethr =  1.00E-06,  avg # of iterations =  2.5

     Threshold (ethr) on eigenvalues was too large:
     Diagonalizing with lowered threshold

     Davidson diagonalization with overlap
     ethr =  4.71E-09,  avg # of iterations =  1.5

     total cpu time spent up to now is       22.8 secs

     total energy              =     -67.23402080 Ry
     estimated scf accuracy    <       0.00000020 Ry

     iteration #  2     ecut=    60.00 Ry     beta= 0.70
     Davidson diagonalization with overlap
     ethr =  5.03E-09,  avg # of iterations =  1.0

     total cpu time spent up to now is       23.2 secs

     total energy              =     -67.23402080 Ry
     estimated scf accuracy    <       0.00000001 Ry

     iteration #  3     ecut=    60.00 Ry     beta= 0.70
     Davidson diagonalization with overlap
     ethr =  2.89E-10,  avg # of iterations =  3.5

     total cpu time spent up to now is       24.5 secs

     End of self-consistent calculation

          k = 0.0000 0.0000 0.0000 (  2479 PWs)   bands (ev):

    -3.3280   1.9913   2.4792  14.5003  14.5808  14.5809

          k =-0.0000-0.0000 0.0777 (  2460 PWs)   bands (ev):

    -3.2388   0.9371   3.6864  14.6416  14.6417  14.7166

          k =-0.0000-0.0000 0.1554 (  2436 PWs)   bands (ev):

    -2.9715  -0.1707   5.2529  12.8324  14.8183  14.8184

          k =-0.0000-0.0000 0.2330 (  2454 PWs)   bands (ev):

    -2.5279  -1.1231   6.9688  10.7914  15.0783  15.0783

          k = 0.0000 0.0000-0.3107 (  2472 PWs)   bands (ev):

    -1.9105  -1.9105   8.8207   8.8207  15.2588  15.2588

          k = 0.0000 0.0962 0.0000 (  2451 PWs)   bands (ev):

    -3.1913   2.1157   2.6114  12.2245  13.2850  14.1131

          k = 0.0000 0.0962 0.0777 (  2447 PWs)   bands (ev):

    -3.1021   1.0668   3.8127  12.2898  13.3577  14.0878

          k = 0.0000 0.0962 0.1554 (  2448 PWs)   bands (ev):

    -2.8353  -0.0388   5.3750  12.3889  13.0922  13.5753

          k = 0.0000 0.0962 0.2330 (  2462 PWs)   bands (ev):

    -2.3923  -0.9897   7.0852  10.8709  12.9495  13.9360

          k = 0.0000 0.0962-0.3107 (  2452 PWs)   bands (ev):

    -1.7759  -1.7759   8.9273   8.9273  13.4025  13.4025

          k = 0.0000 0.1924 0.0000 (  2449 PWs)   bands (ev):

    -2.7822   2.4891   3.0029   9.7109  12.2568  12.9070

          k = 0.0000 0.1924 0.0777 (  2450 PWs)   bands (ev):

    -2.6935   1.4546   4.1871   9.7883  12.3308  12.7915

          k = 0.0000 0.1924 0.1554 (  2449 PWs)   bands (ev):

    -2.4279   0.3554   5.7336  10.0161  12.2595  12.5530

          k = 0.0000 0.1924 0.2330 (  2460 PWs)   bands (ev):

    -1.9869  -0.5908   7.4174  10.3315  11.1676  11.7495

          k = 0.0000 0.1924-0.3107 (  2460 PWs)   bands (ev):

    -1.3733  -1.3733   9.1953   9.1953  11.0362  11.0362

          k = 0.0000 0.2886 0.0000 (  2449 PWs)   bands (ev):

    -2.1046   3.1119   3.6283   7.3895  11.4584  11.6277

          k = 0.0000 0.2886 0.0777 (  2450 PWs)   bands (ev):

    -2.0165   2.0951   4.7813   7.4819  10.9926  11.5327

          k = 0.0000 0.2886 0.1554 (  2452 PWs)   bands (ev):

    -1.7529   1.0075   6.2513   7.7800  10.0928  11.7557

          k = 0.0000 0.2886 0.2330 (  2446 PWs)   bands (ev):

    -1.3153   0.0697   7.6005   8.4518   9.2941  11.7444

          k = 0.0000 0.2886-0.3107 (  2454 PWs)   bands (ev):

    -0.7065  -0.7065   8.4204   8.4204  10.0601  10.0601

          k = 0.0000 0.3847 0.0000 (  2449 PWs)   bands (ev):

    -1.1646   3.9847   4.2556   5.5216  10.0141  10.1945

          k = 0.0000 0.3847 0.0777 (  2442 PWs)   bands (ev):

    -1.0775   2.9667   4.9888   6.0311   9.0354  10.9637

          k = 0.0000 0.3847 0.1554 (  2447 PWs)   bands (ev):

    -0.8167   1.9059   5.3900   7.3205   8.0942  11.1866

          k = 0.0000 0.3847 0.2330 (  2446 PWs)   bands (ev):

    -0.3840   0.9836   5.8311   7.1246   9.0181  11.5586

          k = 0.0000 0.3847-0.3107 (  2444 PWs)   bands (ev):

     0.2177   0.2177   6.4091   6.4091  10.6820  10.6820

          k = 0.0000 0.4809 0.0000 (  2445 PWs)   bands (ev):

     0.0291   3.0916   5.1057   5.8927   8.1380   8.6654

          k = 0.0000 0.4809 0.0777 (  2440 PWs)   bands (ev):

     0.1148   3.1335   4.2682   6.8269   7.3013   9.6662

          k = 0.0000 0.4809 0.1554 (  2433 PWs)   bands (ev):

     0.3713   2.9106   3.6948   6.1536   8.4090  10.8455

          k = 0.0000 0.4809 0.2330 (  2440 PWs)   bands (ev):

     0.7962   2.1199   3.9885   5.2748   9.9488  11.2169

          k = 0.0000 0.4809-0.3107 (  2448 PWs)   bands (ev):

     1.3840   1.3840   4.5454   4.5454  11.3785  11.7377

          k =-0.0000-0.5771-0.0000 (  2432 PWs)   bands (ev):

     1.4609   1.4632   6.3142   6.6770   6.9898   7.3729

          k =-0.0000-0.5771 0.0777 (  2432 PWs)   bands (ev):

     1.5423   1.5473   5.5533   5.5961   8.2215   8.2359

          k =-0.0000-0.5771 0.1554 (  2432 PWs)   bands (ev):

     1.7838   1.7963   4.5364   4.5573   9.5136   9.7188

          k =-0.0000-0.5771 0.2330 (  2440 PWs)   bands (ev):

     2.1692   2.1900   3.6596   3.6931  10.7562  11.1031

          k =-0.0000-0.5771-0.3107 (  2432 PWs)   bands (ev):

     2.5180   2.5180   3.1766   3.1766  11.6236  11.6236

          k = 0.0833 0.1443 0.0000 (  2457 PWs)   bands (ev):

    -2.9184   2.3646   2.8734  10.8999  11.1825  15.2060

          k = 0.0833 0.1443 0.0777 (  2451 PWs)   bands (ev):

    -2.8295   1.3256   4.0632  10.9697  11.2544  14.6358

          k = 0.0833 0.1443 0.1554 (  2454 PWs)   bands (ev):

    -2.5635   0.2242   5.6160  11.1610  11.4630  13.0894

          k = 0.0833 0.1443 0.2330 (  2459 PWs)   bands (ev):

    -2.1218  -0.7235   7.3115  10.9253  11.7227  11.7657

          k = 0.0833 0.1443-0.3107 (  2466 PWs)   bands (ev):

    -1.5073  -1.5073   9.1248   9.1248  11.9069  11.9069

          k = 0.0833 0.2405 0.0000 (  2458 PWs)   bands (ev):

    -2.3750   2.8627   3.3846   8.5963  10.0690  13.3365

          k = 0.0833 0.2405 0.0777 (  2458 PWs)   bands (ev):

    -2.2867   1.8400   4.5523   8.6770  10.1326  12.4850

          k = 0.0833 0.2405 0.1554 (  2452 PWs)   bands (ev):

    -2.0223   0.7475   6.0745   8.9182  10.2878  11.5627

          k = 0.0833 0.2405 0.2330 (  2454 PWs)   bands (ev):

    -1.5833  -0.1938   7.7028   9.3146  10.2304  10.9134

          k = 0.0833 0.2405-0.3107 (  2456 PWs)   bands (ev):

    -0.9726  -0.9726   9.2527   9.2527  10.0415  10.0415

          k = 0.0833 0.3366 0.0000 (  2445 PWs)   bands (ev):

    -1.5662   3.6106   4.0832   6.4324   9.2707  11.1300

          k = 0.0833 0.3366 0.0777 (  2445 PWs)   bands (ev):

[...]
     c_bands:  4 eigenvalues not converged
     c_bands:  4 eigenvalues not converged
     c_bands:  3 eigenvalues not converged
     c_bands:  3 eigenvalues not converged
     c_bands:  4 eigenvalues not converged
     c_bands:  3 eigenvalues not converged
     c_bands:  4 eigenvalues not converged
     c_bands:  1 eigenvalues not converged
     c_bands:  2 eigenvalues not converged
     c_bands:  4 eigenvalues not converged
     c_bands:  1 eigenvalues not converged
     c_bands:  1 eigenvalues not converged
     c_bands:  3 eigenvalues not converged
     c_bands:  1 eigenvalues not converged
     c_bands:  4 eigenvalues not converged
     c_bands:  4 eigenvalues not converged
     c_bands:  4 eigenvalues not converged
     c_bands:  1 eigenvalues not converged
     c_bands:  3 eigenvalues not converged
     c_bands:  3 eigenvalues not converged
     c_bands:  2 eigenvalues not converged
     c_bands:  1 eigenvalues not converged
     c_bands:  3 eigenvalues not converged
     c_bands:  4 eigenvalues not converged
     c_bands:  4 eigenvalues not converged
     c_bands:  4 eigenvalues not converged
     c_bands:  4 eigenvalues not converged
     c_bands:  4 eigenvalues not converged
     c_bands:  4 eigenvalues not converged
     c_bands:  3 eigenvalues not converged
     c_bands:  3 eigenvalues not converged
     c_bands:  3 eigenvalues not converged
     c_bands:  4 eigenvalues not converged
     c_bands:  3 eigenvalues not converged
     c_bands:  1 eigenvalues not converged
     c_bands:  4 eigenvalues not converged
     c_bands:  1 eigenvalues not converged
     c_bands:  3 eigenvalues not converged
     c_bands:  2 eigenvalues not converged
     c_bands:  3 eigenvalues not converged
     c_bands:  3 eigenvalues not converged
     c_bands:  3 eigenvalues not converged
     c_bands:  3 eigenvalues not converged
     c_bands:  4 eigenvalues not converged
     c_bands:  5 eigenvalues not converged
     c_bands:  1 eigenvalues not converged
     c_bands:  3 eigenvalues not converged
     c_bands:  2 eigenvalues not converged
     c_bands:  4 eigenvalues not converged
     c_bands:  1 eigenvalues not converged
     c_bands:  1 eigenvalues not converged
     c_bands:  3 eigenvalues not converged
     ethr =  1.00E-06,  avg # of iterations = 18.9

     total cpu time spent up to now is       44.6 secs

     total energy              =     -67.23403419 Ry
     estimated scf accuracy    <       0.00718615 Ry

     iteration #  2     ecut=    60.00 Ry     beta= 0.70
     Davidson diagonalization with overlap
     ethr =  1.80E-04,  avg # of iterations =  1.3

     total cpu time spent up to now is       45.0 secs

     total energy              =     -67.23403849 Ry
     estimated scf accuracy    <       0.00065272 Ry

     iteration #  3     ecut=    60.00 Ry     beta= 0.70
     Davidson diagonalization with overlap
     ethr =  1.63E-05,  avg # of iterations =  1.4

     total cpu time spent up to now is       45.5 secs

     total energy              =     -67.23404244 Ry
     estimated scf accuracy    <       0.00000019 Ry

     iteration #  4     ecut=    60.00 Ry     beta= 0.70
     Davidson diagonalization with overlap
     ethr =  4.71E-09,  avg # of iterations =  7.4

     total cpu time spent up to now is       47.3 secs

     total energy              =     -67.23404762 Ry
     estimated scf accuracy    <          3.2E-09 Ry

     iteration #  5     ecut=    60.00 Ry     beta= 0.70
     Davidson diagonalization with overlap
     ethr =  8.07E-11,  avg # of iterations =  3.6

     total cpu time spent up to now is       48.4 secs

     total energy              =     -67.23404762 Ry
     estimated scf accuracy    <          7.7E-10 Ry

     iteration #  6     ecut=    60.00 Ry     beta= 0.70
     Davidson diagonalization with overlap
     ethr =  1.91E-11,  avg # of iterations =  3.0

     total cpu time spent up to now is       49.3 secs

     End of self-consistent calculation

          k = 0.0000 0.0000 0.0000 (  2429 PWs)   bands (ev):

    -3.3281   2.0378   2.5612  14.4080  14.4674  14.4675

          k = 0.0000-0.0000 0.0781 (  2430 PWs)   bands (ev):

    -3.2378   0.9841   3.7695  14.4801  14.5296  14.5296

          k = 0.0000-0.0000 0.1563 (  2436 PWs)   bands (ev):

    -2.9674  -0.1349   5.3516  12.9964  14.7104  14.7104

          k = 0.0000-0.0000 0.2344 (  2430 PWs)   bands (ev):

    -2.5186  -1.0978   7.0853  10.9448  14.9791  14.9791

          k =-0.0000 0.0000-0.3125 (  2412 PWs)   bands (ev):

    -1.8942  -1.8942   8.9560   8.9560  15.1748  15.1748

          k = 0.0000 0.0959 0.0000 (  2411 PWs)   bands (ev):

    -3.1922   2.1614   2.6925  12.1406  13.1870  14.0334

          k = 0.0000 0.0959 0.0781 (  2419 PWs)   bands (ev):

    -3.1020   1.1129   3.8948  12.2085  13.2606  14.0271

          k = 0.0000 0.0959 0.1563 (  2439 PWs)   bands (ev):

    -2.8320  -0.0039   5.4726  12.3519  13.1980  13.4810

          k = 0.0000 0.0959 0.2344 (  2436 PWs)   bands (ev):

    -2.3839  -0.9653   7.2003  11.0177  12.8753  13.8463

          k = 0.0000 0.0959-0.3125 (  2430 PWs)   bands (ev):

    -1.7604  -1.7604   9.0603   9.0603  13.3314  13.3314

          k = 0.0000 0.1918 0.0000 (  2425 PWs)   bands (ev):

    -2.7855   2.5323   3.0810   9.6407  12.1629  12.8421

          k = 0.0000 0.1918 0.0781 (  2423 PWs)   bands (ev):

    -2.6957   1.4981   4.2661   9.7194  12.2379  12.7358

          k = 0.0000 0.1918 0.1563 (  2440 PWs)   bands (ev):

    -2.4270   0.3878   5.8273   9.9521  12.2180  12.4628

          k = 0.0000 0.1918 0.2344 (  2441 PWs)   bands (ev):

    -1.9809  -0.5688   7.5263  10.2928  11.2240  11.7607

          k = 0.0000 0.1918-0.3125 (  2436 PWs)   bands (ev):

    -1.3602  -1.3602   9.3122   9.3122  10.9911  10.9911

          k = 0.0000 0.2877 0.0000 (  2425 PWs)   bands (ev):

    -2.1118   3.1509   3.7000   7.3340  11.3680  11.5929

          k = 0.0000 0.2877 0.0781 (  2417 PWs)   bands (ev):

    -2.0227   2.1341   4.8526   7.4291  10.9697  11.4432

          k = 0.0000 0.2877 0.1563 (  2427 PWs)   bands (ev):

    -1.7560   1.0357   6.3261   7.7413  10.0660  11.6689

          k = 0.0000 0.2877 0.2344 (  2434 PWs)   bands (ev):

    -1.3132   0.0876   7.6181   8.4849   9.2678  12.0457

          k = 0.0000 0.2877-0.3125 (  2434 PWs)   bands (ev):

    -0.6974  -0.6974   8.3928   8.3928  10.1633  10.1633

          k = 0.0000 0.3836 0.0000 (  2427 PWs)   bands (ev):

    -1.1771   4.0177   4.2879   5.5112  10.0070  10.1992

          k = 0.0000 0.3836 0.0781 (  2426 PWs)   bands (ev):

    -1.0889   2.9988   4.9715   6.0732   9.0293  10.8768

          k = 0.0000 0.3836 0.1563 (  2428 PWs)   bands (ev):

    -0.8251   1.9282   5.3533   7.3908   8.0864  11.1023

          k = 0.0000 0.3836 0.2344 (  2420 PWs)   bands (ev):

    -0.3873   0.9959   5.7953   7.1037   9.1092  11.4788

          k = 0.0000 0.3836-0.3125 (  2422 PWs)   bands (ev):

     0.2213   0.2213   6.3789   6.3789  10.7784  10.7784

          k = 0.0000 0.4795 0.0000 (  2419 PWs)   bands (ev):

     0.0099   3.0590   5.1309   5.9504   8.1439   8.6968

          k = 0.0000 0.4795 0.0781 (  2411 PWs)   bands (ev):

     0.0967   3.1055   4.2873   6.8777   7.3167   9.6930

          k = 0.0000 0.4795 0.1563 (  2410 PWs)   bands (ev):

     0.3563   2.9156   3.6731   6.1514   8.4787  10.7627

          k = 0.0000 0.4795 0.2344 (  2425 PWs)   bands (ev):

     0.7862   2.1248   3.9615   5.2622  10.0229  11.1386

          k = 0.0000 0.4795-0.3125 (  2432 PWs)   bands (ev):

     1.3808   1.3808   4.5245   4.5245  11.4258  11.6657

          k =-0.0000-0.5754-0.0000 (  2412 PWs)   bands (ev):

     1.4313   1.4394   6.3271   6.6970   7.0513   7.4087

          k =-0.0000-0.5754 0.0781 (  2408 PWs)   bands (ev):

     1.5165   1.5218   5.5630   5.6197   8.2725   8.2805

          k =-0.0000-0.5754 0.1563 (  2402 PWs)   bands (ev):

     1.7664   1.7687   4.5483   4.5575   9.5486   9.7916

          k =-0.0000-0.5754 0.2344 (  2416 PWs)   bands (ev):

     2.1571   2.1686   3.6599   3.6836  10.7735  11.0252

          k =-0.0000-0.5754-0.3125 (  2408 PWs)   bands (ev):

     2.5085   2.5085   3.1629   3.1629  11.5519  11.5520

          k = 0.0831 0.1439 0.0000 (  2417 PWs)   bands (ev):

    -2.9208   2.4086   2.9526  10.8273  11.0983  15.1179

          k = 0.0831 0.1439 0.0781 (  2429 PWs)   bands (ev):

    -2.8309   1.3699   4.1434  10.8989  11.1714  14.6105

          k = 0.0831 0.1439 0.1563 (  2436 PWs)   bands (ev):

    -2.5618   0.2575   5.7111  11.0989  11.3840  13.1877

          k = 0.0831 0.1439 0.2344 (  2445 PWs)   bands (ev):

    -2.1150  -0.7007   7.4231  11.0202  11.6944  11.6968

          k = 0.0831 0.1439-0.3125 (  2434 PWs)   bands (ev):

    -1.4934  -1.4934   9.2513   9.2513  11.8450  11.8450

          k = 0.0831 0.2398 0.0000 (  2437 PWs)   bands (ev):

    -2.3806   2.9034   3.4593   8.5333   9.9966  13.3047

          k = 0.0831 0.2398 0.0781 (  2431 PWs)   bands (ev):

    -2.2913   1.8808   4.6277   8.6154  10.0622  12.4565

          k = 0.0831 0.2398 0.1563 (  2433 PWs)   bands (ev):

    -2.0237   0.7774   6.1624   8.8619  10.2247  11.5290

          k = 0.0831 0.2398 0.2344 (  2437 PWs)   bands (ev):

    -1.5797  -0.1743   7.7977   9.2727  10.1846  10.9120

          k = 0.0831 0.2398-0.3125 (  2432 PWs)   bands (ev):

    -0.9619  -0.9619   9.2991   9.2991  10.0520  10.0520

          k = 0.0831 0.3357 0.0000 (  2423 PWs)   bands (ev):

    -1.5765   3.6462   4.1461   6.3875   9.2086  11.1147

          k = 0.0831 0.3357 0.0781 (  2424 PWs)   bands (ev):

    -1.4879   2.6358   5.2359   6.5336   9.2148  10.4131

          k = 0.0831 0.3357 0.1563 (  2427 PWs)   bands (ev):

    -1.2228   1.5489   6.2789   7.2402   8.9226   9.9800

          k = 0.0831 0.3357 0.2344 (  2428 PWs)   bands (ev):

    -0.7828   0.6085   6.8633   8.1305   8.7197  10.2473

          k = 0.0831 0.3357-0.3125 (  2434 PWs)   bands (ev):

    -0.1710  -0.1710   7.4607   7.4607  10.0396  10.0396

          k = 0.0831 0.4316 0.0000 (  2413 PWs)   bands (ev):

    -0.5155   3.9585   4.6368   5.5532   8.5589   9.1344

          k = 0.0831 0.4316 0.0781 (  2419 PWs)   bands (ev):

    -0.4281   3.5233   4.3442   6.4893   8.0501   9.1068

          k = 0.0831 0.4316 0.1563 (  2421 PWs)   bands (ev):

    -0.1665   2.5441   4.5325   7.0891   7.9150   9.4038

          k = 0.0831 0.4316 0.2344 (  2424 PWs)   bands (ev):

     0.2674   1.6340   4.9381   6.2405   9.1240  10.0861

          k = 0.0831 0.4316-0.3125 (  2420 PWs)   bands (ev):

     0.8698   0.8698   5.5122   5.5122   9.9049   9.9049

          k = 0.0831 0.5275 0.0000 (  2405 PWs)   bands (ev):

     0.7915   2.3237   5.8657   6.5678   7.4065   7.7304

          k = 0.0831 0.5275 0.0781 (  2410 PWs)   bands (ev):

     0.8771   2.4018   4.9779   6.4244   7.5481   8.5710

          k = 0.0831 0.5275 0.1563 (  2412 PWs)   bands (ev):

     1.1326   2.6178   3.9665   5.4068   8.5083   9.5662

          k = 0.0831 0.5275 0.2344 (  2411 PWs)   bands (ev):

     1.5535   2.7010   3.3899   4.5165   9.1284  10.3194

          k = 0.0831 0.5275-0.3125 (  2414 PWs)   bands (ev):

     2.1233   2.1233   3.7953   3.7953   9.7390   9.7390

          k = 0.1661 0.2877 0.0000 (  2419 PWs)   bands (ev):

    -1.7100   3.5223   4.0557   7.4872   7.9054  12.1711

          k = 0.1661 0.2877 0.0781 (  2424 PWs)   bands (ev):

    -1.6213   2.5122   5.1907   7.5648   8.0016  11.5527

          k = 0.1661 0.2877 0.1563 (  2427 PWs)   bands (ev):

    -1.3558   1.4214   6.6168   7.7938   8.3035  10.6065

          k = 0.1661 0.2877 0.2344 (  2425 PWs)   bands (ev):

    -0.9151   0.4788   7.8927   8.1536   8.7923   9.7290

          k = 0.1661 0.2877-0.3125 (  2434 PWs)   bands (ev):

    -0.3022  -0.3022   8.4960   8.4960   9.0191   9.0191

          k = 0.1661 0.3836 0.0000 (  2410 PWs)   bands (ev):

    -0.7795   4.3893   4.6210   5.7859   7.1716  10.3399

          k = 0.1661 0.3836 0.0781 (  2415 PWs)   bands (ev):

    -0.6918   3.3670   5.3380   6.2252   7.3154   9.6246

          k = 0.1661 0.3836 0.1563 (  2422 PWs)   bands (ev):

    -0.4292   2.3068   5.7190   7.0117   7.8427   8.8907

          k = 0.1661 0.3836 0.2344 (  2421 PWs)   bands (ev):

     0.0064   1.3815   6.1464   7.2105   7.9045   8.9539

          k = 0.1661 0.3836-0.3125 (  2424 PWs)   bands (ev):

     0.6117   0.6117   6.6895   6.6895   8.3459   8.3459

          k = 0.1661 0.4795 0.0000 (  2410 PWs)   bands (ev):

     0.4020   3.4343   5.5019   5.8877   7.0218   8.5081

          k = 0.1661 0.4795 0.0781 (  2410 PWs)   bands (ev):

     0.4883   3.4775   4.6374   6.4152   7.2751   8.1512

          k = 0.1661 0.4795 0.1563 (  2412 PWs)   bands (ev):

     0.7463   3.2788   4.0518   6.3218   7.0902   8.9851

          k = 0.1661 0.4795 0.2344 (  2418 PWs)   bands (ev):

     1.1735   2.5000   4.3340   5.5855   7.4190   8.6660

          k = 0.1661 0.4795-0.3125 (  2410 PWs)   bands (ev):

     1.7636   1.7636   4.8828   4.8828   7.9749   7.9749

          k = 0.1661 0.5754 0.0000 (  2410 PWs)   bands (ev):

     1.8199   1.8208   6.0991   6.6900   7.0746   7.3921

          k = 0.1661 0.5754 0.0781 (  2414 PWs)   bands (ev):

     1.9019   1.9049   5.6959   5.9943   6.6733   8.5758

          k = 0.1661 0.5754 0.1563 (  2410 PWs)   bands (ev):

     2.1453   2.1532   4.8536   4.9276   6.8825   9.2501

          k = 0.1661 0.5754 0.2344 (  2402 PWs)   bands (ev):

     2.5327   2.5448   4.0360   4.0436   7.2850   8.5573

          k = 0.1661 0.5754-0.3125 (  2400 PWs)   bands (ev):

     2.8735   2.8735   3.5479   3.5479   7.8512   7.8512

          k = 0.2492 0.4316 0.0000 (  2415 PWs)   bands (ev):

     0.2717   4.5846   4.8519   5.3792   6.6363   9.6066

          k = 0.2492 0.4316 0.0781 (  2412 PWs)   bands (ev):

     0.3582   4.1722   4.9316   5.2046   7.3739   9.0156

          k = 0.2492 0.4316 0.1563 (  2413 PWs)   bands (ev):

     0.6169   3.2690   5.1668   5.3572   7.7501   8.0871

          k = 0.2492 0.4316 0.2344 (  2406 PWs)   bands (ev):

     1.0455   2.3887   5.5374   5.6967   7.0714   7.2572

          k = 0.2492 0.4316-0.3125 (  2416 PWs)   bands (ev):

     1.6393   1.6393   5.8925   5.8925   6.7384   6.7384

          k = 0.2492 0.5275 0.0000 (  2423 PWs)   bands (ev):

     1.5659   3.0813   4.5438   6.6027   7.5091   8.1250

          k = 0.2492 0.5275 0.0781 (  2419 PWs)   bands (ev):

     1.6502   3.1566   4.5814   5.8654   7.2302   8.3694

          k = 0.2492 0.5275 0.1563 (  2408 PWs)   bands (ev):

     1.9016   3.3612   4.4760   5.1808   6.3391   7.7260

          k = 0.2492 0.5275 0.2344 (  2403 PWs)   bands (ev):

     2.3140   3.4178   4.1169   5.0133   5.8519   6.8856

          k = 0.2492 0.5275-0.3125 (  2402 PWs)   bands (ev):

     2.8671   2.8671   4.4932   4.4932   6.2027   6.2027

          k = 0.3322 0.5754 0.0000 (  2424 PWs)   bands (ev):

     2.9580   2.9616   2.9616   7.7812   7.7812   8.0904

          k = 0.3322 0.5754 0.0781 (  2427 PWs)   bands (ev):

     3.0387   3.0387   3.0411   7.0307   7.1892   7.1892

          k = 0.3322 0.5754 0.1563 (  2412 PWs)   bands (ev):

     3.2612   3.2612   3.2904   5.9525   6.2703   6.2703

          k = 0.3322 0.5754 0.2344 (  2385 PWs)   bands (ev):

     3.5819   3.5819   3.7060   5.0372   5.4919   5.4919

          k = 0.3322 0.5754-0.3125 (  2400 PWs)   bands (ev):

     3.7887   3.7887   4.2882   4.2882   5.1289   5.1290

     the Fermi energy is     3.5808 ev

!    total energy              =     -67.23404762 Ry
     total all-electron energy =      -801.342465 Ry
     estimated scf accuracy    <          3.4E-12 Ry
     smearing contrib. (-TS)   =      -0.00001511 Ry
     internal energy E=F+TS    =     -67.23403251 Ry

     The total energy is F=E-TS. E is the sum of the following terms:
     one-electron contribution =       2.85239011 Ry
     hartree contribution      =       0.00778282 Ry
     xc contribution           =      -3.19029974 Ry
     ewald contribution        =      -4.30828171 Ry
     one-center paw contrib.   =     -62.59562399 Ry

     convergence has been achieved in   6 iterations

     Forces acting on atoms (cartesian axes, Ry/au):

     atom    1 type  1   force =    -0.00000000   -0.00000000   -0.00000000
     atom    2 type  1   force =     0.00000000    0.00000000    0.00000000

     Total force =     0.000000     Total SCF correction =     0.000000


     Computing stress (Cartesian axis) and pressure

          total   stress  (Ry/bohr**3)                   (kbar)     P=        0.00
   0.00000002   0.00000000   0.00000000            0.00        0.00        0.00
   0.00000000   0.00000002  -0.00000000            0.00        0.00       -0.00
   0.00000000  -0.00000000   0.00000001            0.00       -0.00        0.00


     Writing all to output data dir ./tmp/mg.save/ :
     XML data file, charge density, pseudopotentials, collected wavefunctions
 
     init_run     :      7.80s CPU      6.93s WALL (       2 calls)
     electrons    :     38.07s CPU     36.93s WALL (      11 calls)
     update_pot   :      0.57s CPU      0.42s WALL (       9 calls)
     forces       :      1.58s CPU      1.54s WALL (      11 calls)
     stress       :      3.53s CPU      3.21s WALL (      11 calls)

     Called by init_run:
     wfcinit      :      0.34s CPU      0.47s WALL (       2 calls)
     potinit      :      7.19s CPU      6.16s WALL (       2 calls)
     hinit0       :      0.14s CPU      0.13s WALL (       2 calls)

     Called by electrons:
     c_bands      :     32.10s CPU     32.06s WALL (      48 calls)
     sum_band     :      2.04s CPU      2.00s WALL (      48 calls)
     v_of_rho     :      0.37s CPU      0.31s WALL (      49 calls)
     newd         :      1.69s CPU      1.24s WALL (      49 calls)
                                        1.24s GPU  (      49 calls)
     PAW_pot      :      2.58s CPU      1.94s WALL (      58 calls)
     mix_rho      :      0.05s CPU      0.05s WALL (      48 calls)

     Called by c_bands:
     init_us_2    :      1.27s CPU      1.15s WALL (   12255 calls)
     cegterg      :     30.68s CPU     30.75s WALL (    4564 calls)

     Called by *egterg:
     cdiaghg      :      6.54s CPU      6.72s WALL (   15475 calls)
                                        6.65s GPU  (   15475 calls)
     h_psi        :      6.58s CPU      6.64s WALL (   17474 calls)
                                        6.60s GPU  (   17474 calls)
     s_psi        :      0.87s CPU      0.91s WALL (   17474 calls)
     g_psi        :      0.04s CPU      0.11s WALL (   12720 calls)
                                        0.09s GPU  (   12720 calls)

     Called by h_psi:
     h_psi:calbec :      0.28s CPU      1.63s WALL (   17474 calls)
                                        1.59s GPU  (   17474 calls)
     vloc_psi     :      3.36s CPU      3.20s WALL (   17474 calls)
                                        3.18s GPU  (   17474 calls)
     add_vuspsi   :      0.81s CPU      1.32s WALL (   17474 calls)
                                        1.27s GPU  (   17474 calls)

     General routines
     calbec       :      0.47s CPU      0.56s WALL (   40654 calls)
     fft          :      4.62s CPU      3.93s WALL (     909 calls)
                                        0.04s GPU  (     860 calls)
     ffts         :      2.73s CPU      2.33s WALL (      97 calls)
                                        0.00s GPU  (      48 calls)
     fftw         :      0.34s CPU      1.59s WALL (   39508 calls)
                                        1.52s GPU  (   39508 calls)
     interpolate  :      7.34s CPU      6.22s WALL (      49 calls)
 
     Parallel routines
 
     PWSCF        :     52.50s CPU     49.82s WALL

 
   This run was terminated on:  21: 1: 3  25Oct2025            

=------------------------------------------------------------------------------=
   JOB DONE.
=------------------------------------------------------------------------------=
